/*--------------------------------*- C++ -*----------------------------------*\
  =========                 |
  \\      /  F ield         | OpenFOAM: The Open Source CFD Toolbox
   \\    /   O peration     | Website:  https://openfoam.org
    \\  /    A nd           | Version:  13
     \\/     M anipulation  |
\*---------------------------------------------------------------------------*/
FoamFile
{
    format      ascii;
    class       volScalarField;
    location    "0";
    object      rho;
}
// * * * * * * * * * * * * * * * * * * * * * * * * * * * * * * * * * * * * * //

dimensions      [1 -3 0 0 0 0 0];

internalField   nonuniform List<scalar> 
5388
(
0.86903295
0.86917729
0.86935022
0.86955738
0.86980546
0.87010246
0.8704579
0.87088311
0.87139152
0.87199904
0.87272447
0.87358994
0.87462142
0.87584924
0.87730858
0.87904003
0.88108993
0.8835106
0.88636025
0.88970233
0.89360417
0.89813458
0.90336002
0.90933925
0.91611628
0.92371205
0.93211607
0.94127947
0.95111253
0.96148779
0.97225042
0.98323703
0.99425613
1.0051362
1.0157602
1.0260419
1.0359247
1.0454011
1.0547001
0.86903298
0.86917738
0.8693504
0.86955766
0.86980587
0.87010304
0.87045869
0.87088417
0.87139291
0.87200086
0.87272682
0.87359297
0.87462528
0.87585413
0.87731474
0.87904772
0.88109945
0.88352229
0.88637445
0.88971939
0.89362445
0.8981584
0.90338768
0.90937102
0.91615245
0.92375308
0.9321628
0.94133357
0.95117699
0.96156777
0.97235397
0.98337438
0.9944382
1.0053885
1.0161129
1.0265328
1.0365982
1.0463039
1.0559858
0.8690331
0.86917779
0.86935115
0.86955881
0.8698075
0.87010525
0.87046159
0.8708879
0.87139764
0.87200678
0.87273418
0.87360204
0.87463641
0.8758677
0.87733123
0.87906766
0.88112345
0.88355103
0.88640866
0.88975985
0.89367191
0.89821359
0.90345129
0.90944371
0.91623499
0.92384661
0.93226936
0.94145697
0.95132397
0.96174983
0.97258893
0.98367757
0.99484353
1.0059467
1.0168872
1.0276016
1.0380528
1.0482332
1.058695
0.86903332
0.8691785
0.86935244
0.8695608
0.86981033
0.87010908
0.87046664
0.87089438
0.87140585
0.87201705
0.8727469
0.87361769
0.87465555
0.87589099
0.87735942
0.87910163
0.88116419
0.88359965
0.88646637
0.88982791
0.89375164
0.89830629
0.90355825
0.90956628
0.91637477
0.92400597
0.93245226
0.94167038
0.95157969
0.96206778
0.97299079
0.98419761
0.99553969
1.0068981
1.0181942
1.0293859
1.0404513
1.0513648
1.0629931
0.86903366
0.86917956
0.86935438
0.86956378
0.86981457
0.87011482
0.87047417
0.87090407
0.87141811
0.87203238
0.8727659
0.87364107
0.87468413
0.87592574
0.87740147
0.87915229
0.88122494
0.88367214
0.88655243
0.88992951
0.89387084
0.89844524
0.9037192
0.90975172
0.91658776
0.92425095
0.93273635
0.94200535
0.95198417
0.9625643
0.9736182
0.9850133
0.99662787
1.0083715
1.0201931
1.032075
1.0440064
1.0559105
1.0690272
0.86903412
0.86918104
0.86935708
0.86956795
0.86982049
0.87012284
0.87048471
0.87091762
0.87143525
0.87205383
0.87279249
0.87367378
0.87472413
0.87597439
0.87746037
0.87922327
0.88131011
0.88377388
0.88667338
0.89007257
0.89403915
0.89864219
0.90394851
0.91001772
0.91689584
0.92460895
0.93315636
0.9425031
0.95258368
0.96330427
0.97455637
0.98623297
0.99824508
1.0105366
1.0230868
1.0358972
1.0489517
1.062072
1.0768465
0.86903475
0.86918305
0.86936073
0.86957357
0.86982848
0.87013367
0.87049892
0.87093589
0.87145839
0.87208277
0.87282837
0.87371793
0.87477812
0.87604009
0.87753994
0.87931924
0.88142537
0.88391174
0.88683757
0.89026725
0.89426895
0.89891225
0.90426475
0.91038736
0.91732765
0.92511464
0.93375209
0.9432136
0.9534459
0.96437405
0.97591511
0.98799471
1.000562
1.0135978
1.0271061
1.0410892
1.0554891
1.0699639
1.0863112
0.86903557
0.86918568
0.86936553
0.86958098
0.869839
0.87014792
0.87051764
0.87095996
0.87148885
0.87212088
0.87287562
0.87377608
0.87484927
0.8761267
0.8776449
0.87944592
0.88157768
0.88409418
0.88705529
0.8905261
0.89457553
0.89927413
0.90469063
0.91088759
0.91791574
0.92580837
0.9345756
0.94420318
0.95465473
0.96587977
0.97782754
0.9904625
1.0037747
1.0177769
1.0324797
1.0478459
1.063715
1.0795199
1.0970288
0.86903663
0.86918908
0.86937174
0.86959054
0.86985259
0.87016633
0.87054182
0.87099105
0.87152822
0.87217014
0.8729367
0.87385127
0.87494129
0.87623875
0.87778077
0.87961002
0.88177519
0.88433108
0.88733848
0.89086351
0.89497632
0.89974889
0.90525198
0.91155085
0.91870041
0.9267397
0.93568936
0.94555055
0.95630908
0.96794486
0.98044527
0.99381709
1.0080878
1.0232853
1.0393888
1.0562569
1.0735451
1.0904209
1.108364
0.86903799
0.86919341
0.86937962
0.8696027
0.86986986
0.87018973
0.87057256
0.87103058
0.87157826
0.87223276
0.87301435
0.87394689
0.87505834
0.87638134
0.87795374
0.8798191
0.88202705
0.88463353
0.88770062
0.89129593
0.89549138
0.90036124
0.90597916
0.91241429
0.91972703
0.92796582
0.9371648
0.94734494
0.95851962
0.97070462
0.98392917
0.99824039
1.0136891
1.0302839
1.047912
1.0662447
1.0846699
1.1020912
1.1195348
0.86903968
0.86919882
0.8693895
0.86961792
0.86989148
0.87021902
0.87061105
0.87108007
0.87164093
0.87231119
0.87311162
0.87406667
0.87520501
0.87656007
0.87817067
0.88008146
0.88234338
0.88501385
0.88815671
0.89184164
0.89614313
0.90113852
0.90690533
0.91351831
0.92104627
0.92954961
0.93907985
0.9496824
0.96140314
0.97429737
0.98843536
1.0038936
1.0207168
1.0388396
1.0579767
1.0775265
1.0965595
1.1137828
1.129775
0.86904177
0.8692055
0.86940168
0.8696367
0.86991817
0.87025518
0.87065855
0.87114116
0.87171827
0.872408
0.87323171
0.87421458
0.87538616
0.8767809
0.87843881
0.88040597
0.88273496
0.88548516
0.88872274
0.89252012
0.89695505
0.90210904
0.90806529
0.91490627
0.92271159
0.93155689
0.94151507
0.95266031
0.96507438
0.97885225
0.99409712
1.0108913
1.0292263
1.0488881
1.0693317
1.0896224
1.108535
1.1247243
1.1384965
0.86904431
0.86921363
0.8694165
0.86965954
0.86995062
0.87029915
0.87071633
0.87121546
0.87181237
0.87252578
0.87337784
0.87439461
0.8756067
0.87704984
0.87876551
0.88080157
0.88321267
0.88606066
0.8894146
0.89335047
0.89795045
0.90330167
0.90949469
0.91662188
0.92477643
0.93405267
0.94454856
0.95637015
0.96963587
0.98447474
1.0010049
1.0192757
1.0391603
1.0602112
1.081552
1.1019135
1.119888
1.1342823
1.1453934
0.86904735
0.86922336
0.86943426
0.86968692
0.86998952
0.87035186
0.87078558
0.87130454
0.87192518
0.872667
0.87355306
0.87461051
0.87587124
0.8773725
0.87915762
0.88127657
0.88378658
0.88675257
0.89024729
0.89435122
0.89915214
0.9047443
0.91122752
0.91870649
0.92729082
0.93709665
0.94824983
0.96088937
0.97516674
0.99123168
1.009187
1.0289953
1.0503337
1.0724423
1.0940863
1.1137407
1.1300107
1.1420739
1.1504551
0.86905095
0.86923486
0.86945523
0.86971924
0.87003545
0.8704141
0.87086736
0.87140972
0.87205839
0.87283378
0.87376003
0.87486557
0.87618382
0.87775389
0.87962124
0.88183847
0.88446592
0.88757221
0.89123462
0.89553918
0.90058057
0.90646176
0.91329385
0.92119621
0.93029756
0.94073825
0.95267332
0.96627271
0.9817117
0.99913807
1.0185964
1.0398955
1.0624378
1.0851016
1.106333
1.1245129
1.1384951
1.148
1.1539014
0.86905513
0.86924823
0.86947962
0.86975684
0.87008889
0.87048651
0.8709625
0.87153211
0.87221341
0.8730279
0.87400094
0.87516251
0.87654782
0.87819812
0.88016145
0.88249347
0.88525821
0.88852876
0.89238779
0.89692798
0.90225225
0.90847399
0.91571754
0.92411916
0.93382879
0.94501237
0.9578532
0.97254598
0.98927356
1.0081492
1.0291047
1.0517225
1.0750666
1.097654
1.1177288
1.1337961
1.1451763
1.1522034
1.1560763
0.86905993
0.86926356
0.86950758
0.86979994
0.87015014
0.87056952
0.87107159
0.87167244
0.87239119
0.87325052
0.87427728
0.87550317
0.87696549
0.87870799
0.88078167
0.88324579
0.88616866
0.88962858
0.89371456
0.89852705
0.90417858
0.91079459
0.91851447
0.92749322
0.93790341
0.94993645
0.96379989
0.97970196
0.99780933
1.0181586
1.0405064
1.0641414
1.0877578
1.109577
1.1278247
1.1413613
1.1501148
1.154982
1.1573469
0.86906534
0.86928088
0.86953917
0.86984864
0.87021935
0.87066332
0.87119486
0.87183103
0.8725921
0.87350214
0.87458966
0.87588833
0.87743783
0.87928473
0.88148346
0.88409736
0.88719967
0.89087466
0.89521861
0.90034087
0.90636494
0.91342977
0.92169143
0.93132492
0.94252568
0.95550831
0.97049729
0.98769787
1.0072294
1.0290015
1.0525322
1.0767657
1.1000432
1.1204241
1.136336
1.1471858
1.1535387
1.1566924
1.1580323
0.86907137
0.86930017
0.86957435
0.86990288
0.87029644
0.87076779
0.87133217
0.8720077
0.87281594
0.87378252
0.87493779
0.87631765
0.87796444
0.87992791
0.88226633
0.88504763
0.88835064
0.89226637
0.89689927
0.90236871
0.90881039
0.91637809
0.9252456
0.93560844
0.94768386
0.96170529
0.97790318
0.99645758
1.0174021
1.0404649
1.0648679
1.0891913
1.1114978
1.1298718
1.1431582
1.1514187
1.1557629
1.1576703
1.1583665
0.869078
0.86932135
0.869613
0.86996246
0.87038113
0.87088258
0.87148305
0.87220184
0.87306195
0.87409071
0.87532051
0.87678971
0.8785436
0.88063545
0.88312779
0.88609367
0.88961811
0.89379956
0.89875158
0.9046045
0.91150733
0.91962974
0.92916395
0.94032573
0.95335162
0.96848674
0.98595243
1.0058758
1.028161
1.0522999
1.0771778
1.1010326
1.1217811
1.1377437
1.1483525
1.1543201
1.157114
1.1581879
1.158519
0.86908518
0.86934432
0.8696549
0.87002707
0.87047296
0.87100706
0.87164668
0.87241242
0.87332882
0.87442507
0.87573581
0.87730206
0.87917233
0.88140376
0.88406352
0.88723028
0.8909958
0.89546673
0.90076649
0.90703731
0.91444242
0.92316817
0.93342549
0.94544907
0.95949034
0.97579626
0.9945598
1.0158224
1.0393121
1.0642361
1.0891281
1.1119543
1.1306627
1.1440119
1.152106
1.1561919
1.1578789
1.1584373
1.158584
0.86909287
0.86936893
0.86969979
0.87009628
0.87057134
0.87114044
0.87182201
0.87263807
0.87361484
0.87478348
0.87618105
0.87785146
0.87984668
0.88222803
0.88506772
0.88845046
0.89247532
0.89725778
0.90293187
0.90965252
0.91759793
0.92697151
0.93800238
0.95094182
0.9660501
0.98356316
1.0036223
1.0261467
1.0506422
1.0759964
1.1004111
1.1217001
1.1380393
1.1487783
1.1546762
1.157326
1.1582812
1.1585489
1.1586097
0.86910102
0.869395
0.86974736
0.87016964
0.87067563
0.87128182
0.87200789
0.87287733
0.87391812
0.87516358
0.87665331
0.87843429
0.88056219
0.8831028
0.88613367
0.88974598
0.89404664
0.89916049
0.90523284
0.91243201
0.92095165
0.93101227
0.94286004
0.95675924
0.97297087
0.99170412
1.0130218
1.036682
1.0619279
1.0873135
1.1107685
1.1301088
1.1439246
1.1522359
1.1563415
1.1579696
1.1584768
1.1585956
1.1586189
0.86910966
0.86942262
0.86979774
0.8702473
0.87078598
0.87143137
0.87220441
0.87313015
0.87423842
0.87556475
0.87715142
0.87904863
0.88131592
0.88402376
0.88725535
0.89110874
0.89569907
0.90116117
0.90765223
0.91535449
0.92447739
0.93525811
0.94795791
0.96284916
0.98018339
1.0001244
1.0226272
1.0472511
1.072946
1.0979459
1.1200059
1.1371184
1.1484334
1.1546273
1.1573608
1.1583105
1.1585634
1.1586135
1.1586218
0.86911815
0.86944982
0.86984741
0.87032397
0.87089514
0.87157957
0.87239961
0.87338192
0.87455832
0.87596675
0.8776524
0.87966899
0.88208034
0.88496207
0.88840363
0.89251055
0.89740699
0.90323849
0.91017483
0.91841274
0.92817753
0.9397222
0.95332029
0.96924574
0.98772774
1.0088625
1.0324638
1.0578548
1.0836724
1.1078693
1.1281525
1.1428636
1.1518071
1.1562285
1.1579583
1.1584813
1.1585997
1.1586199
1.1586227
0.86912783
0.86948076
0.86990384
0.87041096
0.87101875
0.87174709
0.87261976
0.87366514
0.87491714
0.8764162
0.87821049
0.88035736
0.88292499
0.88599425
0.88966096
0.89403835
0.89925985
0.90548205
0.91288773
0.92168837
0.932125
0.94446515
0.95899104
0.97597031
0.99559484
1.0178686
1.0424309
1.0683379
1.0939135
1.1169016
1.1351125
1.1473842
1.1542032
1.1572319
1.1582801
1.1585582
1.1586135
1.1586218
1.1586229
0.86913715
0.86951057
0.86995823
0.87049485
0.87113805
0.87190889
0.87283257
0.8739392
0.87526476
0.87685216
0.87875261
0.88102707
0.88374808
0.88700183
0.89089051
0.89553503
0.90107803
0.907687
0.91555737
0.92491463
0.93601416
0.94913534
0.96456412
0.98255309
1.0032427
1.0265247
1.0518432
1.0779822
1.1029895
1.1245056
1.1405872
1.1506356
1.1557457
1.1577954
1.1584332
1.1585883
1.1586179
1.1586224
1.1586229
0.86914619
0.86953948
0.870011
0.87057625
0.8712538
0.87206589
0.8730391
0.87420522
0.87560224
0.87727552
0.8792792
0.88167782
0.88454821
0.88798178
0.89208701
0.8969924
0.90284961
0.90983681
0.91816162
0.92806276
0.93980838
0.95368687
0.96998282
0.98892517
1.0105896
1.0347383
1.0606074
1.0867198
1.110896
1.130784
1.1448017
1.1529077
1.156692
1.1580961
1.1585074
1.1586026
1.1586201
1.1586227
1.158623
0.86915489
0.86956731
0.87006179
0.8706546
0.87136524
0.87221706
0.87323798
0.87446141
0.87592731
0.87768338
0.87978664
0.88230506
0.88531969
0.88892697
0.89324154
0.89839924
0.90456054
0.91191387
0.92067846
0.93110529
0.94347358
0.95807784
0.97519636
0.99502666
1.0175679
1.0424381
1.0686592
1.0945261
1.1176754
1.135863
1.1479032
1.1544298
1.1572802
1.1582739
1.1585495
1.1586105
1.1586212
1.1586228
1.158623
0.86916318
0.86959385
0.87011022
0.87072931
0.87147151
0.87236123
0.87342767
0.8747058
0.87623744
0.87807258
0.88027095
0.88290387
0.8860564
0.88982988
0.89434482
0.89974418
0.90619684
0.91390104
0.92308691
0.93401659
0.94697861
0.96227068
0.98016032
1.0008085
1.0241287
1.0495779
1.0759569
1.1013262
1.1233
1.1398443
1.1501911
1.1554808
1.1576621
1.1583833
1.1585743
1.1586149
1.1586219
1.1586229
1.158623
0.869171
0.86961888
0.87015591
0.8707998
0.87157177
0.87249725
0.87360666
0.87493644
0.87653017
0.87844
0.88072827
0.88346945
0.88675245
0.89068325
0.89538801
0.90101646
0.90774552
0.9157827
0.92536833
0.93677457
0.95029736
0.966234
0.98483427
1.0062077
1.0301693
1.0560275
1.0823869
1.1071519
1.1279567
1.142961
1.1518831
1.1562151
1.1579152
1.1584525
1.1585894
1.1586175
1.1586223
1.1586229
1.158623
0.86917827
0.86964213
0.87019835
0.87086529
0.87166494
0.87262366
0.87377302
0.87515082
0.87680231
0.87878163
0.88115357
0.88399554
0.88740005
0.89147743
0.89635909
0.90220105
0.90918762
0.91753474
0.92749169
0.93933888
0.95337705
0.96989958
0.98913446
1.0111381
1.035627
1.0617647
1.0879898
1.1120955
1.1317778
1.1453935
1.1531376
1.1567333
1.158086
1.1584974
1.1585988
1.1586191
1.1586225
1.1586229
1.158623
0.86918489
0.86966331
0.87023701
0.87092493
0.87174979
0.8727388
0.87392455
0.87534611
0.87705023
0.87909291
0.88154113
0.88447503
0.8879904
0.89220154
0.89724466
0.90328149
0.91050304
0.91913275
0.9294277
0.94167508
0.95617858
0.97322554
0.99302031
1.015566
1.0404842
1.0668014
1.0928139
1.116245
1.1348829
1.1472834
1.1540696
1.1571024
1.1582031
1.1585272
1.1586049
1.1586202
1.1586226
1.158623
1.158623
0.86919079
0.86968219
0.87027147
0.87097811
0.87182545
0.87284147
0.87405969
0.87552029
0.87727139
0.8793706
0.88188693
0.88490293
0.88851731
0.89284795
0.89803535
0.90424633
0.91167782
0.92055984
0.93115616
0.94375938
0.95867473
0.9761821
0.99646149
1.0194641
1.0447234
1.0711442
1.0969039
1.119684
1.1373765
1.1487429
1.1547625
1.1573672
1.1582844
1.1585474
1.158609
1.1586208
1.1586227
1.158623
1.158623
0.86919592
0.86969862
0.87030147
0.8710244
0.87189131
0.87293085
0.87417734
0.87567194
0.87746395
0.87961243
0.8821881
0.88527565
0.88897636
0.89341121
0.89872444
0.90508731
0.9127019
0.92180385
0.93266253
0.94557486
0.96084643
0.97874911
0.99943917
1.0228194
1.0483433
1.0748118
1.1003083
1.1224955
1.1393433
1.1498596
1.1552765
1.157558
1.1583415
1.1585612
1.1586117
1.1586213
1.1586228
1.158623
1.158623
0.86920026
0.86971249
0.87032679
0.87106347
0.8719469
0.87300629
0.87427665
0.87579997
0.87762653
0.87981661
0.88244242
0.88559043
0.8893641
0.89388704
0.89930666
0.90579797
0.91356735
0.92285516
0.93393534
0.94710806
0.96267863
0.98091096
1.0019395
1.0256239
1.0513486
1.0778278
1.1030729
1.1247441
1.1408651
1.1507027
1.155655
1.1576952
1.1583817
1.1585708
1.1586136
1.1586216
1.1586228
1.158623
1.158623
0.86920376
0.86972371
0.87034726
0.87109506
0.87199185
0.8730673
0.87435697
0.87590351
0.87775802
0.87998177
0.88264816
0.8858451
0.88967783
0.8942721
0.89977787
0.9063732
0.91426794
0.92370621
0.93496553
0.94834852
0.96415978
0.982656
1.0039528
1.0278735
1.0537456
1.0802142
1.1052367
1.1264791
1.1420134
1.1513253
1.1559287
1.1577925
1.1584098
1.1585774
1.1586148
1.1586218
1.1586228
1.158623
1.158623
0.86920641
0.86973219
0.87036275
0.87111897
0.87202587
0.87311348
0.87441776
0.87598188
0.87785756
0.88010681
0.88280393
0.88603794
0.88991541
0.89456373
0.9001348
0.90680898
0.91479873
0.92435101
0.935746
0.94928802
0.96528089
0.98397538
1.0054722
1.0295661
1.0555413
1.0819906
1.1068336
1.1277449
1.1428374
1.1517647
1.1561188
1.1578591
1.1584287
1.1585817
1.1586157
1.1586219
1.1586229
1.158623
1.158623
0.8692082
0.8697379
0.87037317
0.87113504
0.87204874
0.87314452
0.87445863
0.87603457
0.87792448
0.88019087
0.88290865
0.8861676
0.89007517
0.89475985
0.90037486
0.90710208
0.91515578
0.92478478
0.93627104
0.94991997
0.96603475
0.98486196
1.0064919
1.0306999
1.0567403
1.0831716
1.1078888
1.1285747
1.1433713
1.152046
1.1562392
1.1579009
1.1584405
1.1585845
1.1586162
1.158622
1.1586229
1.158623
1.158623
0.86920909
0.86974077
0.87037841
0.87114313
0.87206026
0.87316014
0.8744792
0.8760611
0.87795817
0.88023319
0.88296138
0.88623289
0.89015563
0.89485863
0.90049578
0.90724975
0.9153357
0.92500341
0.93653573
0.95023862
0.96641491
0.98530902
1.0070059
1.0312709
1.0573434
1.0837642
1.1084166
1.1289878
1.1436354
1.1521843
1.1562981
1.1579212
1.1584462
1.1585858
1.1586164
1.158622
1.1586229
1.158623
1.158623
1.0620018
1.0682778
1.0737594
1.0786121
1.0829619
1.0869001
1.0904927
1.0937896
1.0968313
1.0996461
1.1022677
1.104697
1.1069972
1.1090878
1.1111542
1.0633698
1.0697218
1.0752984
1.0802466
1.0846876
1.0887096
1.0923761
1.0957349
1.0988252
1.1016736
1.1043136
1.1067417
1.1090292
1.1110684
1.1131178
1.0662555
1.0727706
1.0785335
1.083663
1.0882707
1.0924407
1.0962326
1.0996915
1.1028546
1.1057463
1.1084003
1.1108064
1.1130502
1.1149773
1.1169741
1.0708012
1.0775345
1.0835341
1.0888876
1.0936941
1.0980321
1.1019574
1.1055123
1.1087333
1.1116431
1.1142771
1.116618
1.1187694
1.1205242
1.1224159
1.0771075
1.0840619
1.0902838
1.095837
1.1008072
1.105267
1.1092701
1.1128584
1.1160693
1.1189265
1.121469
1.1236764
1.1256678
1.1271963
1.128914
1.0851537
1.0922602
1.0986089
1.1042546
1.1092725
1.1137318
1.1176873
1.1211846
1.1242652
1.1269577
1.1293065
1.1312942
1.1330484
1.134311
1.1357757
1.0947106
1.1018158
1.1081122
1.113662
1.1185373
1.1228085
1.126537
1.1297762
1.1325756
1.1349721
1.1370164
1.1387004
1.1401507
1.141128
1.1422688
1.1052917
1.1121641
1.1181643
1.1233745
1.1278739
1.131741
1.135048
1.1378598
1.1402357
1.1422225
1.1438757
1.1452
1.1463117
1.1470016
1.1478909
1.1161902
1.1225513
1.1279881
1.1326094
1.1365104
1.1397827
1.1425115
1.1447731
1.1466349
1.1481514
1.1493795
1.1503362
1.1511145
1.1515676
1.152199
1.1266054
1.1321856
1.1368269
1.1406646
1.1438131
1.1463779
1.1484537
1.1501243
1.1514594
1.1525158
1.1533465
1.1539756
1.1544676
1.1547468
1.1551381
1.1358202
1.1404224
1.1441269
1.147089
1.1494377
1.1512869
1.1527329
1.153859
1.1547293
1.155396
1.1559045
1.1562774
1.1565559
1.1567109
1.1569284
1.1433569
1.1469026
1.1496503
1.1517633
1.1533741
1.1545948
1.1555124
1.1562024
1.1567146
1.1570903
1.1573609
1.1575525
1.1576901
1.1577662
1.1578737
1.1490499
1.1515891
1.1534743
1.1548616
1.1558735
1.1566089
1.1571373
1.157507
1.1577682
1.1579533
1.1580837
1.1581739
1.1582364
1.158271
1.1583198
1.1530185
1.1547026
1.155895
1.1567309
1.1573118
1.1577021
1.157967
1.1581466
1.1582691
1.158353
1.1584106
1.1584494
1.1584756
1.1584901
1.1585105
1.1555701
1.1566012
1.1572952
1.1577497
1.1580426
1.1582316
1.1583543
1.1584345
1.1584873
1.1585223
1.1585457
1.1585611
1.1585712
1.1585768
1.1585846
1.1570814
1.1576633
1.1580248
1.1582471
1.1583838
1.1584682
1.1585207
1.1585538
1.1585748
1.1585882
1.1585969
1.1586026
1.1586062
1.1586082
1.1586109
1.1579051
1.1581989
1.1583712
1.158472
1.1585311
1.158566
1.1585868
1.1585993
1.1586071
1.1586118
1.1586149
1.1586168
1.1586179
1.1586186
1.1586195
1.1583114
1.1584477
1.1585239
1.1585663
1.15859
1.1586034
1.158611
1.1586155
1.1586181
1.1586197
1.1586206
1.1586212
1.1586216
1.1586218
1.1586221
1.1584965
1.1585553
1.1585866
1.1586031
1.1586119
1.1586167
1.1586193
1.1586208
1.1586216
1.1586221
1.1586224
1.1586225
1.1586226
1.1586227
1.1586228
1.1585751
1.1585986
1.1586105
1.1586165
1.1586195
1.1586211
1.1586219
1.1586224
1.1586226
1.1586228
1.1586228
1.1586229
1.1586229
1.1586229
1.1586229
1.1586062
1.1586148
1.158619
1.158621
1.158622
1.1586225
1.1586227
1.1586228
1.1586229
1.1586229
1.158623
1.158623
1.158623
1.158623
1.158623
1.1586176
1.1586204
1.1586218
1.1586224
1.1586227
1.1586228
1.1586229
1.158623
1.158623
1.158623
1.158623
1.158623
1.158623
1.158623
1.158623
1.1586214
1.1586222
1.1586226
1.1586228
1.1586229
1.158623
1.158623
1.158623
1.158623
1.158623
1.158623
1.158623
1.158623
1.158623
1.158623
1.1586225
1.1586228
1.1586229
1.1586229
1.158623
1.158623
1.158623
1.158623
1.158623
1.158623
1.158623
1.158623
1.158623
1.158623
1.158623
1.1130297
1.114904
1.1167705
1.118622
1.1204519
1.1222535
1.1240214
1.1257472
1.1274327
1.1290578
1.1306535
1.132135
1.1336939
1.1348705
1.1367515
1.1148043
1.1164996
1.1182007
1.1198981
1.1215851
1.1232549
1.1249019
1.126518
1.128104
1.1296402
1.1311557
1.1325683
1.1340619
1.1351924
1.1370091
1.1183095
1.1196663
1.1210499
1.122449
1.1238576
1.1252692
1.1266783
1.1280771
1.1294657
1.1308244
1.1321792
1.1334537
1.1348154
1.1358525
1.1375388
1.1232956
1.124204
1.125158
1.1261479
1.1271705
1.1282211
1.1292944
1.1303845
1.1314901
1.1325926
1.133714
1.1347866
1.1359542
1.1368531
1.1383453
1.1293124
1.1297362
1.1302118
1.1307361
1.1313138
1.1319419
1.1326167
1.1333363
1.1340978
1.1348849
1.1357163
1.1365358
1.1374571
1.1381796
1.1394211
1.1357616
1.1357454
1.1357674
1.1358387
1.1359763
1.1361757
1.1364375
1.1367663
1.1371566
1.1375981
1.1381071
1.1386418
1.1392803
1.1397992
1.1407455
1.1420075
1.1416418
1.1413094
1.141018
1.1407806
1.140604
1.1404917
1.1404572
1.1404895
1.1405901
1.1407751
1.1410176
1.1413575
1.1416603
1.1422836
1.1474206
1.1468843
1.1463489
1.1458288
1.145338
1.1448888
1.1444902
1.1441571
1.1438915
1.1436973
1.1435847
1.1435541
1.1436026
1.1436951
1.1439864
1.1516833
1.1511203
1.1505311
1.1499279
1.1493235
1.1487309
1.1481624
1.147634
1.1471557
1.1467376
1.1463871
1.1461206
1.1459226
1.1458128
1.1458023
1.1547056
1.1542205
1.1536922
1.1531271
1.1525334
1.1519213
1.151302
1.1506911
1.1501011
1.1495482
1.1490379
1.1486004
1.148207
1.1479344
1.1476569
1.1566205
1.1562643
1.1558599
1.1554075
1.1549093
1.1543704
1.1537978
1.1532036
1.1525986
1.1520015
1.1514157
1.1508819
1.1503578
1.1499726
1.1494816
1.1576924
1.15747
1.1572029
1.1568876
1.1565217
1.156105
1.155639
1.1551305
1.1545853
1.154021
1.1534365
1.152879
1.1522931
1.1518497
1.1512113
1.158228
1.1581078
1.157954
1.1577608
1.157523
1.1572362
1.1568972
1.1565071
1.1560656
1.1555861
1.1550614
1.1545402
1.1539556
1.1535052
1.1527898
1.1584694
1.1584121
1.1583339
1.158229
1.1580913
1.1579145
1.1576923
1.1574218
1.1570969
1.1567261
1.1562956
1.1558513
1.1553174
1.1549017
1.1541756
1.1585681
1.1585438
1.1585083
1.1584575
1.158386
1.158288
1.1581562
1.1579858
1.1577675
1.157505
1.1571796
1.1568313
1.1563796
1.1560261
1.1553447
1.158605
1.1585957
1.1585812
1.1585591
1.1585256
1.1584766
1.1584057
1.1583081
1.1581736
1.1580033
1.1577756
1.1575235
1.1571677
1.156888
1.1562914
1.1586175
1.1586143
1.158609
1.1586003
1.1585862
1.158564
1.1585293
1.1584785
1.1584024
1.158301
1.1581532
1.1579845
1.157723
1.1575143
1.1570272
1.1586215
1.1586205
1.1586187
1.1586156
1.1586102
1.1586011
1.1585856
1.1585616
1.158522
1.1584668
1.1583776
1.1582733
1.1580941
1.1579456
1.1575745
1.1586226
1.1586223
1.1586218
1.1586208
1.1586189
1.1586156
1.1586092
1.1585989
1.1585799
1.1585525
1.1585025
1.158443
1.1583285
1.1582285
1.1579624
1.1586229
1.1586228
1.1586227
1.1586224
1.1586218
1.1586207
1.1586183
1.1586143
1.1586059
1.1585935
1.1585676
1.1585361
1.1584681
1.1584047
1.1582245
1.158623
1.158623
1.1586229
1.1586228
1.1586227
1.1586223
1.1586215
1.1586201
1.1586167
1.1586115
1.1585992
1.1585836
1.1585465
1.1585086
1.1583933
1.158623
1.158623
1.158623
1.158623
1.1586229
1.1586228
1.1586226
1.1586221
1.1586209
1.1586188
1.1586136
1.1586062
1.1585876
1.1585663
1.1584966
1.158623
1.158623
1.158623
1.158623
1.158623
1.1586229
1.1586229
1.1586227
1.1586223
1.1586216
1.1586195
1.1586163
1.1586077
1.1585965
1.1585568
1.158623
1.158623
1.158623
1.158623
1.158623
1.158623
1.158623
1.1586229
1.1586228
1.1586226
1.1586218
1.1586205
1.1586169
1.1586114
1.15859
1.158623
1.158623
1.158623
1.158623
1.158623
1.158623
1.158623
1.158623
1.158623
1.158623
1.158623
1.158623
1.158623
1.158623
1.158623
1.158623
1.158623
1.158623
1.158623
1.158623
1.158623
1.158623
1.158623
1.158623
1.158623
1.158623
1.158623
1.158623
1.158623
1.158623
1.158623
1.158623
1.158623
1.158623
1.158623
1.158623
1.158623
1.158623
1.158623
1.158623
1.158623
1.158623
1.158623
1.158623
1.158623
1.158623
1.158623
1.158623
1.158623
1.158623
1.158623
1.158623
1.158623
1.158623
1.158623
1.158623
1.158623
1.158623
1.158623
1.158623
1.158623
1.158623
1.158623
1.158623
1.158623
1.158623
1.158623
1.158623
1.158623
1.158623
1.158623
1.158623
1.158623
1.158623
1.158623
1.158623
1.158623
1.158623
1.158623
1.158623
1.158623
1.158623
1.158623
1.158623
1.158623
1.158623
1.158623
1.158623
1.158623
1.158623
1.158623
1.158623
1.158623
1.158623
1.158623
1.158623
1.158623
1.158623
1.158623
1.158623
1.158623
1.158623
1.158623
1.158623
1.158623
1.158623
1.158623
1.158623
1.158623
1.158623
1.158623
1.158623
1.158623
1.158623
1.158623
1.158623
1.158623
1.158623
1.158623
1.158623
1.158623
1.158623
1.158623
1.158623
1.158623
1.158623
1.158623
1.158623
1.158623
1.158623
1.158623
1.158623
1.158623
1.158623
1.158623
1.158623
1.158623
1.158623
1.158623
1.158623
1.158623
1.158623
1.158623
1.158623
1.1586229
1.158623
1.158623
1.158623
1.158623
1.158623
1.158623
1.158623
1.158623
1.158623
1.158623
1.158623
1.158623
1.158623
1.158623
1.158623
1.158623
1.158623
1.158623
1.158623
1.158623
1.158623
1.158623
1.158623
1.158623
1.158623
1.158623
1.158623
1.158623
1.158623
1.158623
1.158623
1.158623
1.158623
1.158623
1.158623
1.158623
1.158623
1.158623
1.158623
1.158623
1.158623
1.158623
1.158623
1.158623
1.158623
1.158623
1.158623
1.158623
1.158623
1.158623
1.158623
1.158623
1.158623
1.158623
1.158623
1.158623
1.158623
1.158623
1.158623
1.158623
1.158623
1.158623
1.158623
1.158623
1.158623
1.158623
1.158623
1.158623
1.158623
1.158623
1.158623
1.158623
1.158623
1.158623
1.158623
1.158623
1.158623
1.158623
1.158623
1.158623
1.158623
1.158623
1.158623
1.158623
1.158623
1.158623
1.158623
1.158623
1.158623
1.158623
1.158623
1.158623
1.158623
1.158623
1.158623
1.158623
1.158623
1.158623
1.158623
1.158623
1.158623
1.158623
1.158623
1.158623
1.158623
1.158623
1.158623
1.158623
1.158623
1.158623
1.158623
1.158623
1.158623
1.158623
1.158623
1.158623
1.158623
1.158623
1.158623
1.158623
1.158623
1.158623
1.158623
1.158623
1.158623
1.158623
1.158623
1.158623
1.158623
1.158623
1.158623
1.158623
1.158623
1.158623
1.158623
1.158623
1.158623
1.158623
1.158623
1.158623
1.158623
1.158623
1.1586229
1.1586228
1.1586226
1.1586219
1.1586203
1.1586174
1.1586051
1.158623
1.158623
1.158623
1.158623
1.158623
1.158623
1.158623
1.158623
1.158623
1.158623
1.1586229
1.1586227
1.1586221
1.1586208
1.1586149
1.158623
1.158623
1.158623
1.158623
1.158623
1.158623
1.158623
1.158623
1.158623
1.158623
1.158623
1.1586229
1.1586228
1.1586225
1.1586208
1.158623
1.158623
1.158623
1.158623
1.158623
1.158623
1.158623
1.158623
1.158623
1.158623
1.158623
1.158623
1.158623
1.1586229
1.1586227
1.158623
1.158623
1.158623
1.158623
1.158623
1.158623
1.158623
1.158623
1.158623
1.158623
1.158623
1.158623
1.158623
1.158623
1.158623
1.158623
1.158623
1.158623
1.158623
1.158623
1.158623
1.158623
1.158623
1.158623
1.158623
1.158623
1.158623
1.158623
1.158623
1.158623
1.158623
1.158623
1.158623
1.158623
1.158623
1.158623
1.158623
1.158623
1.158623
1.158623
1.158623
1.158623
1.158623
1.158623
1.158623
1.158623
1.158623
1.158623
1.158623
1.158623
1.158623
1.158623
1.158623
1.158623
1.158623
1.158623
1.158623
1.158623
1.158623
1.158623
1.158623
1.158623
1.158623
1.158623
1.158623
1.158623
1.158623
1.158623
1.158623
1.158623
1.158623
1.158623
1.158623
1.158623
1.158623
0.86903295
0.86917729
0.86935022
0.86955738
0.86980546
0.87010246
0.8704579
0.87088311
0.87139152
0.87199904
0.87272447
0.87358994
0.87462142
0.87584924
0.87730858
0.87904003
0.88108993
0.8835106
0.88636025
0.88970233
0.89360417
0.89813458
0.90336002
0.90933925
0.91611628
0.92371205
0.93211607
0.94127947
0.95111253
0.96148779
0.97225042
0.98323703
0.99425613
1.0051362
1.0157602
1.0260419
1.0359247
1.0454011
1.0547001
0.86903298
0.86917738
0.8693504
0.86955766
0.86980587
0.87010304
0.87045869
0.87088417
0.87139291
0.87200086
0.87272682
0.87359297
0.87462528
0.87585413
0.87731474
0.87904772
0.88109945
0.88352229
0.88637445
0.88971939
0.89362445
0.8981584
0.90338768
0.90937102
0.91615244
0.92375308
0.9321628
0.94133357
0.95117699
0.96156777
0.97235397
0.98337438
0.9944382
1.0053885
1.0161129
1.0265327
1.0365982
1.0463039
1.0559858
0.8690331
0.86917779
0.86935115
0.86955881
0.8698075
0.87010525
0.87046159
0.8708879
0.87139764
0.87200678
0.87273418
0.87360204
0.87463641
0.8758677
0.87733123
0.87906766
0.88112345
0.88355103
0.88640866
0.88975984
0.8936719
0.89821359
0.90345128
0.90944371
0.91623498
0.92384661
0.93226936
0.94145696
0.95132397
0.96174982
0.97258893
0.98367757
0.99484353
1.0059467
1.0168872
1.0276016
1.0380528
1.0482332
1.058695
0.86903332
0.8691785
0.86935244
0.8695608
0.86981033
0.87010908
0.87046664
0.87089438
0.87140585
0.87201705
0.8727469
0.87361769
0.87465555
0.87589099
0.87735942
0.87910163
0.88116419
0.88359965
0.88646637
0.88982791
0.89375164
0.89830629
0.90355825
0.90956628
0.91637477
0.92400597
0.93245226
0.94167038
0.95157969
0.96206778
0.97299079
0.98419761
0.99553968
1.0068981
1.0181942
1.0293859
1.0404513
1.0513648
1.0629931
0.86903366
0.86917956
0.86935438
0.86956378
0.86981457
0.87011482
0.87047417
0.87090407
0.8714181
0.87203238
0.8727659
0.87364107
0.87468413
0.87592574
0.87740147
0.87915229
0.88122494
0.88367214
0.88655243
0.88992951
0.89387084
0.89844524
0.9037192
0.90975172
0.91658775
0.92425094
0.93273635
0.94200534
0.95198416
0.9625643