/*--------------------------------*- C++ -*----------------------------------*\
  =========                 |
  \\      /  F ield         | OpenFOAM: The Open Source CFD Toolbox
   \\    /   O peration     | Website:  https://openfoam.org
    \\  /    A nd           | Version:  13
     \\/     M anipulation  |
\*---------------------------------------------------------------------------*/
FoamFile
{
    format      ascii;
    class       volScalarField;
    location    "0";
    object      T;
}
// * * * * * * * * * * * * * * * * * * * * * * * * * * * * * * * * * * * * * //

dimensions      [0 0 0 1 0 0 0];

internalField   nonuniform List<scalar> 
5388
(
399.96976
399.90334
399.82379
399.72854
399.61453
399.47813
399.315
399.12004
398.88717
398.60927
398.27793
397.88336
397.41411
396.857
396.19685
395.41646
394.49651
393.41565
392.15082
390.67775
388.97189
387.00983
384.77119
382.24119
379.41354
376.2936
372.90092
369.27073
365.45304
361.50951
357.50768
353.51293
349.59506
345.81089
342.19404
338.76504
335.53321
332.49168
329.56018
399.96975
399.90329
399.8237
399.72841
399.61434
399.47786
399.31464
399.11955
398.88653
398.60844
398.27686
397.88198
397.41236
396.85478
396.19407
395.413
394.49224
393.41045
392.14454
390.67025
388.96306
386.99956
384.75941
382.22784
379.39856
376.27689
372.88223
369.2495
365.42828
361.47944
357.46961
353.46356
349.53106
345.72412
342.07525
338.60305
335.3152
332.20477
329.15892
399.96969
399.90311
399.82336
399.72788
399.61359
399.47684
399.31331
399.11784
398.88437
398.60573
398.2735
397.87785
397.4073
396.84863
396.18662
395.40403
394.4815
393.39765
392.1294
390.65249
388.94241
386.97578
384.73232
382.19728
379.36439
376.23879
372.83961
369.20111
365.37182
361.41102
357.38326
353.35463
349.38866
345.53232
341.8148
338.25086
334.84536
331.59335
328.31662
399.96958
399.90278
399.82277
399.72696
399.61229
399.47508
399.31099
399.11487
398.88061
398.60103
398.26769
397.87072
397.39861
396.83808
396.17389
395.38875
394.46326
393.376
392.10388
390.62261
388.90771
386.93585
384.68678
382.14578
379.30652
376.17391
372.76648
369.11744
365.27364
361.29159
357.23567
353.16794
349.14436
345.20582
341.37605
337.66457
334.07347
330.60569
326.98909
399.96943
399.90229
399.82188
399.72559
399.61034
399.47245
399.30754
399.11043
398.875
398.59403
398.25902
397.86007
397.38562
396.82233
396.15491
395.36597
394.43606
393.34373
392.06581
390.57802
388.85585
386.87601
384.61826
382.06789
379.21838
376.0742
372.65295
368.98619
365.11845
361.10523
357.00548
352.8755
348.76317
344.70146
340.70722
336.78482
332.93589
329.18244
325.14341
399.96922
399.90161
399.82063
399.72368
399.60762
399.46877
399.3027
399.10422
398.86715
398.58422
398.24689
397.84517
397.36745
396.80029
396.12831
395.33405
394.39795
393.29845
392.01233
390.51524
388.78264
386.79122
384.5207
381.95621
379.09096
375.92859
372.48523
368.79133
364.88868
360.82786
356.66182
352.43913
348.19818
343.96295
339.74362
335.5422
331.36627
327.27273
322.78247
399.96893
399.90069
399.81895
399.72109
399.60395
399.4638
399.29618
399.09585
398.85656
398.57099
398.23052
397.82507
397.34292
396.77054
396.09239
395.2909
394.34637
393.23711
391.93975
390.42984
388.68274
386.67501
384.38622
381.80113
378.91252
375.72311
372.24759
368.51354
364.55872
360.42762
356.16528
351.81071
347.39191
342.92419
338.41413
333.86885
329.31392
324.85884
319.97016
399.96855
399.89948
399.81675
399.71769
399.59912
399.45726
399.2876
399.08482
398.84262
398.55358
398.20897
397.7986
397.31061
396.73131
396.04503
395.23397
394.27824
393.15596
391.84355
390.31636
388.54953
386.51941
384.20528
381.59146
378.66976
375.44157
371.91959
368.12733
364.09711
359.86576
355.46872
350.93418
346.28007
341.51613
336.65287
331.71602
326.7673
321.98316
316.84415
399.96806
399.89791
399.81389
399.71329
399.59288
399.4488
399.27651
399.07057
398.82461
398.53107
398.1811
397.76437
397.26883
396.68058
395.98372
395.16023
394.18992
393.05064
391.7185
390.16852
388.37553
386.31546
383.96703
381.31381
378.34634
375.06428
371.4769
367.60278
363.46726
359.09802
354.51967
349.74965
344.79855
339.67776
334.41509
329.07461
323.77521
318.7643
313.60379
399.96744
399.89592
399.81026
399.7077
399.58494
399.43806
399.26241
399.05246
398.80171
398.50245
398.14568
397.72085
397.21569
396.61604
395.90571
395.06633
394.07737
392.91626
391.5587
389.97923
388.15215
386.05272
383.65884
380.95297
377.92403
374.56871
370.89207
366.9065
362.62905
358.07711
353.26441
348.19991
342.89337
337.37042
331.69516
325.99209
320.45445
315.38879
310.47461
399.96666
399.89343
399.80572
399.70071
399.57501
399.42462
399.24476
399.02979
398.77304
398.46663
398.10133
397.66634
397.14912
396.53517
395.80791
394.94855
393.93609
392.74741
391.35762
389.74061
387.86986
385.71973
383.26704
380.49257
377.38272
373.93052
370.13572
366.00345
361.54144
356.75671
351.65394
346.23913
340.53254
334.59191
328.53969
322.5789
316.97987
312.07808
307.66046
399.9657
399.89036
399.80012
399.69208
399.56275
399.40802
399.22298
399.00181
398.73765
398.42241
398.04658
397.59906
397.06693
396.4353
395.68709
394.80298
393.76134
392.53836
391.10837
389.44433
387.51876
385.30477
382.77746
379.91535
376.70162
373.1248
369.17838
364.85938
360.16612
355.09665
349.65116
343.84237
337.71709
331.38648
325.05102
318.99795
313.55551
309.0421
305.30357
399.96453
399.88662
399.79331
399.68158
399.54785
399.38784
399.19649
398.96778
398.69461
398.36863
397.97998
397.5172
396.96692
396.31374
395.53998
394.62566
393.54836
392.28341
390.80413
389.08235
387.08918
384.79605
382.17587
379.20428
375.86053
372.12782
367.99275
363.44408
358.4718
353.06866
347.23831
341.01402
334.48865
327.84726
321.37828
315.43971
310.37675
306.43792
303.46519
399.96313
399.88214
399.78514
399.669
399.52998
399.36365
399.16474
398.92699
398.64303
398.30416
397.90016
397.41907
396.84703
396.16799
395.36357
394.41296
393.2928
391.97732
390.43859
388.64698
386.57185
384.18249
381.44911
378.34384
374.84137
370.91905
366.55639
361.73475
356.43867
350.66191
344.42302
337.7929
330.9304
324.10818
317.69643
312.0899
307.59634
304.34725
302.12997
399.96147
399.87685
399.7755
399.65415
399.50889
399.3351
399.12726
398.87884
398.58214
398.22805
397.8059
397.30321
396.70545
395.99585
395.15519
394.16164
392.99072
391.61535
390.00606
388.13143
385.9587
383.45458
380.58608
377.32129
373.62988
369.48322
364.85439
359.71946
354.06235
347.88706
341.2414
334.25215
327.16015
320.32696
314.17959
309.1002
305.30398
302.77613
301.22762
399.95955
399.8707
399.76428
399.63687
399.48436
399.30188
399.08365
398.82283
398.5113
398.13951
397.69625
397.16841
396.54071
395.79554
394.91266
393.86909
392.639
391.19375
389.50208
387.53045
385.24361
382.60525
379.57877
376.12785
372.21703
367.81213
362.88134
357.39915
351.35596
344.77755
337.75696
330.49336
323.31698
316.66377
310.97632
306.56934
303.52271
301.67152
300.66092
399.95734
399.86365
399.75143
399.61706
399.45623
399.2638
399.03367
398.75862
398.43009
398.03801
397.57055
397.01387
396.35185
395.56588
394.63457
393.5336
392.2356
390.71013
388.92384
386.84078
384.42285
381.63042
378.42293
374.75957
370.59998
365.90555
360.64235
354.78862
348.35029
341.3881
334.05585
326.63635
319.5447
313.26099
308.19253
304.53726
302.21936
300.94577
300.3309
399.95485
399.85568
399.73691
399.59469
399.42446
399.22079
398.97721
398.68608
398.33835
397.92335
397.42855
396.83928
396.13849
395.30642
394.32038
393.15455
391.77979
390.16364
388.27042
386.06146
383.49554
380.52944
377.11855
373.21772
368.78251
363.77185
358.15357
351.91644
345.09237
337.79078
330.23906
322.80676
315.97595
310.2282
305.88405
302.99101
301.32231
300.50076
300.15334
399.95207
399.84681
399.72073
399.56978
399.38908
399.17289
398.91434
398.60531
398.23619
397.79566
397.27041
396.64486
395.90088
395.01747
393.97049
392.73242
391.27219
389.55508
387.54285
385.19388
382.46362
379.30514
375.66992
371.50901
366.77526
361.4278
355.44119
348.82279
341.64186
334.06913
326.41346
319.1241
312.7196
307.6341
304.05856
301.87711
300.7424
300.24695
300.06529
399.94903
399.83706
399.70297
399.54241
399.35022
399.12028
398.84528
398.51658
398.12398
397.65541
397.09671
396.43131
395.6399
394.7001
393.58618
392.26879
390.71473
388.88686
386.74414
384.24185
381.332
377.96399
374.0857
369.64528
364.59475
358.89704
352.53939
345.55669
338.06683
330.31188
322.6832
315.69198
309.85288
305.50557
302.68317
301.11833
300.39125
300.11286
300.02818
399.94572
399.8265
399.68371
399.51274
399.30809
399.06324
398.7704
398.42039
398.00232
397.50335
396.9084
396.19979
395.35696
394.35604
393.1696
391.76627
390.11059
388.16283
385.87904
383.21126
380.10804
376.51529
372.37782
367.64219
362.26211
356.20861
349.48835
342.17311
334.43959
326.60717
319.14258
312.59118
307.41888
303.83162
301.69702
300.63081
300.19278
300.04742
300.00916
399.94218
399.81518
399.66308
399.48096
399.26297
399.00214
398.69021
398.31736
397.87202
397.34049
396.70671
395.95184
395.05394
393.98759
392.72351
391.22823
389.46388
387.388
384.95364
382.10955
378.8009
374.97046
370.56083
365.51865
359.80225
353.39573
346.33253
338.73042
330.833
323.03745
315.87023
309.8752
305.4262
302.57098
301.02546
300.33622
300.08852
300.01992
300.00396
399.93843
399.80319
399.64122
399.44728
399.21514
398.93739
398.60522
398.20818
397.73394
397.16792
396.493
395.68913
394.73294
393.59732
392.25109
390.65858
388.77938
386.56826
383.97514
380.94555
377.42146
373.34302
368.65169
363.29617
357.24296
350.49468
343.11903
335.28803
327.31704
319.67513
312.92485
307.56952
303.8548
301.663
300.59192
300.16929
300.03779
300.00657
300.00084
399.93445
399.79049
399.61807
399.41164
399.16455
398.86893
398.51541
398.09288
397.58822
396.98594
396.26784
395.41259
394.39534
393.18728
391.7552
390.06115
388.06214
385.71003
382.95163
379.72929
375.98207
371.64813
366.66918
360.99836
354.61424
347.54376
339.89615
331.90422
323.95578
316.57939
310.34391
305.67351
302.66183
301.03821
300.32719
300.08094
300.01565
300.00274
300.00038
399.93055
399.77799
399.59526
399.37645
399.11452
398.80111
398.42624
397.97812
397.44279
396.80376
396.04164
395.13374
394.05356
392.77039
391.24885
389.4485
387.32359
384.82296
381.89026
378.46482
374.48323
369.88264
364.60668
358.61593
351.90566
344.53358
336.65784
328.57726
320.74917
313.7437
308.10283
304.13687
301.77529
300.62129
300.17222
300.03669
300.00587
300.0007
300.00006
399.92609
399.76376
399.56933
399.33654
399.05788
398.72447
398.32573
397.84911
397.27979
396.60027
395.78996
394.82477
393.67659
392.31282
390.69591
388.78298
386.52554
383.86946
380.75537
377.11978
372.89733
368.02515
362.45067
356.14501
349.12493
341.48513
333.43889
325.35306
317.74633
311.20646
306.21368
302.93859
301.1488
300.36063
300.08881
300.01678
300.00252
300.00033
300.00004
399.92181
399.75006
399.54435
399.29805
399.00323
398.65048
398.22861
397.72435
397.12201
396.40308
395.54579
394.52465
393.30993
391.86717
390.1567
388.13322
385.74562
382.93696
379.64514
375.80432
371.34793
366.21429
360.35649
353.75896
346.4635
338.60559
330.45515
322.44224
315.13173
309.10203
304.74386
302.08255
300.74687
300.21445
300.04915
300.00897
300.00131
300.00015
300.00001
399.91765
399.73676
399.52012
399.26072
398.95022
398.57871
398.1344
397.60332
396.96895
396.21178
395.3089
394.23346
392.95416
391.43472
389.6334
387.50262
384.98871
382.03214
378.56833
374.52953
369.84871
364.46651
358.3434
351.47953
343.94473
335.91775
327.72444
319.84969
312.88886
307.38583
303.62196
301.4872
300.50083
300.13648
300.02992
300.00528
300.00075
300.00009
300.00001
399.91364
399.72397
399.4968
399.22479
398.8992
398.50963
398.04372
397.48683
396.82163
396.02766
395.0809
393.9532
392.61174
391.01851
389.1298
386.89581
384.26052
381.16199
377.53344
373.3057
368.41193
362.79612
356.42764
349.32425
341.58602
333.43655
325.25522
317.56845
310.99098
306.01133
302.8016
301.08969
300.3481
300.09043
300.01903
300.00325
300.00045
300.00005
300
399.90983
399.71177
399.47456
399.19053
398.85056
398.44377
397.95728
397.37578
396.68118
395.85213
394.86353
393.68601
392.2853
390.62174
388.64976
386.31748
383.56667
380.3332
376.54841
372.14212
367.04833
361.21533
354.62253
347.30616
339.39773
331.16833
323.04914
315.60764
309.43376
304.94247
302.19927
300.81582
300.24902
300.06209
300.01262
300.00209
300.00029
300.00003
300
399.90623
399.70027
399.45359
399.15822
398.80468
398.38165
397.87574
397.27103
396.5487
395.68656
394.6585
393.43398
391.97738
390.24749
388.19695
385.77198
382.91228
379.55173
375.62006
371.04649
365.76648
359.73369
352.93952
345.44254
337.4076
329.14574
321.13003
313.94694
308.15627
304.11093
301.75537
300.62477
300.18338
300.04415
300.00871
300.00141
300.00019
300.00002
300
399.90289
399.68958
399.4341
399.1282
398.76205
398.32394
397.79999
397.17371
396.42562
395.53273
394.46802
393.19983
391.69132
389.89983
387.7764
385.26546
382.30492
378.82697
374.76013
370.03356
364.58494
358.37413
351.40513
343.75813
335.62947
327.36721
319.47628
312.55135
307.11587
303.46508
301.42709
300.49009
300.13911
300.03251
300.00626
300.001
300.00013
300.00001
300
399.89984
399.67985
399.41636
399.10087
398.72324
398.2714
397.73101
397.0851
396.31356
395.39268
394.29459
392.98667
391.43092
389.58339
387.39367
384.80463
381.7526
378.16834
373.9795
369.11554
363.51673
357.1494
350.03003
342.25933
334.06269
325.82161
318.06599
311.38947
306.27559
302.96518
301.18367
300.39425
300.10878
300.02479
300.00468
300.00073
300.0001
300.00001
300
399.89713
399.67117
399.40054
399.0765
398.68863
398.22455
397.66952
397.0061
396.21365
395.26782
394.13998
392.79664
391.19879
389.30133
387.05258
384.39404
381.26068
377.58208
373.2853
368.30035
362.57022
356.0677
348.82123
340.95063
332.70714
324.5006
316.88003
310.43306
305.60411
302.58025
301.00294
300.32552
300.08769
300.01958
300.00363
300.00056
300.00007
300.00001
300
399.89476
399.66362
399.38678
399.05529
398.65852
398.18377
397.616
396.93735
396.1267
395.15915
394.00543
392.63126
390.99679
389.0559
386.75581
384.03687
380.83289
377.07252
372.68239
367.59322
361.75074
355.13383
347.78197
339.83217
331.55831
323.3933
315.89959
309.65551
305.07654
302.2864
300.86901
300.27602
300.0729
300.01599
300.00292
300.00045
300.00006
300.00001
300
399.89277
399.65724
399.37516
399.0374
398.6331
398.14936
397.57083
396.87932
396.05332
395.06744
393.89187
392.4917
390.82632
388.8488
386.50542
383.73557
380.47211
376.64296
372.17449
366.99815
361.06225
354.35114
346.91408
338.90292
330.61054
322.48837
315.10785
309.03645
304.6696
302.06491
300.77048
300.24043
300.06248
300.01352
300.00244
300.00037
300.00005
300.00001
300
399.89116
399.65209
399.36576
399.02292
398.61255
398.12154
397.53431
396.83241
395.99399
394.9933
393.80006
392.37887
390.6885
388.68136
386.30301
383.49203
380.18056
376.29595
371.7644
366.51811
360.50758
353.72187
346.21838
338.1612
329.85847
321.77593
314.49093
308.56049
304.36326
301.90157
300.69925
300.21519
300.05522
300.01182
300.00212
300.00032
300.00004
300
300
399.88994
399.64819
399.35865
399.01197
398.597
398.10049
397.50668
396.7969
395.94909
394.93718
393.73058
392.29347
390.5842
388.55465
386.14983
383.30774
379.95997
376.03345
371.45433
366.15537
360.08887
353.24757
345.69521
337.60525
329.29734
321.24765
314.03721
308.21414
304.1438
301.7864
300.64981
300.19792
300.05031
300.01068
300.0019
300.00028
300.00004
300
300
399.88912
399.64557
399.35388
399.00461
398.58655
398.08633
397.4881
396.77304
395.91891
394.89946
393.68388
392.23607
390.51409
388.46949
386.04688
383.18389
379.81173
375.85707
371.24603
365.91178
359.80787
352.92957
345.34498
337.23389
328.9237
320.8974
313.7381
307.98754
304.0018
301.71271
300.6185
300.18709
300.04726
300.00998
300.00177
300.00026
300.00003
300
300
399.88871
399.64425
399.35147
399.0009
398.58129
398.07921
397.47875
396.76103
395.90371
394.88047
393.66036
392.20718
390.4788
388.42661
385.99504
383.12152
379.73707
375.76824
371.1411
365.78907
359.66633
352.76944
345.1687
337.04715
328.73609
320.72191
313.5887
307.87484
303.9316
301.6765
300.60321
300.18183
300.04579
300.00964
300.0017
300.00025
300.00003
300
300
327.29427
325.37144
323.71034
322.25393
320.95952
319.79653
318.74292
317.78213
316.90085
316.08963
315.33784
314.64438
313.99056
313.39871
312.81588
326.87323
324.93219
323.24704
321.76629
320.44887
319.265
318.19337
317.21795
316.32578
315.50789
314.75361
314.06304
313.41524
312.84001
312.26401
325.98856
324.00873
322.2774
320.75186
319.39376
318.17454
317.07391
316.07659
315.17001
314.34577
313.59304
312.91376
312.28293
311.74319
311.18587
324.6047
322.57626
320.79005
319.21283
317.80992
316.55429
315.42665
314.41229
313.49886
312.67824
311.93909
311.28509
310.68646
310.19991
309.67708
322.70419
320.63393
318.8041
317.18846
315.75629
314.48214
313.34721
312.33681
311.43819
310.64289
309.9386
309.32972
308.78247
308.36375
307.89451
320.3114
318.2273
316.38824
314.77055
313.3466
312.09195
310.98739
310.01731
309.16779
308.4291
307.78759
307.24679
306.77107
306.4296
306.03439
317.51505
315.46744
313.67482
312.11159
310.75118
309.56902
308.54438
307.65972
306.89925
306.25119
305.70056
305.24846
304.86015
304.59903
304.29481
314.47543
312.53212
310.85495
309.41314
308.17876
307.1257
306.23082
305.47406
304.83753
304.30729
303.86747
303.51605
303.22169
303.03929
302.80449
311.40488
309.64019
308.14769
306.8903
305.83687
304.95878
304.23039
303.62935
303.13633
302.73593
302.41245
302.16095
301.95663
301.8378
301.67239
308.52601
307.0053
305.75185
304.7231
303.88428
303.20438
302.65632
302.2167
301.86626
301.58959
301.37236
301.20806
301.07969
301.00688
300.90492
306.02294
304.78792
303.80102
303.01649
302.39729
301.91155
301.53283
301.23854
301.01151
300.83782
300.70548
300.60849
300.53609
300.49583
300.43933
304.00568
303.06581
302.34143
301.78675
301.36523
301.04663
300.80756
300.62802
300.49491
300.39735
300.3271
300.2774
300.2417
300.22196
300.1941
302.49947
301.83243
301.33909
300.9771
300.7136
300.52239
300.38515
300.28922
300.22147
300.17348
300.13967
300.11632
300.1001
300.09115
300.0785
301.45823
301.01859
300.70801
300.49075
300.33991
300.23865
300.16995
300.12339
300.09165
300.06991
300.055
300.04494
300.03816
300.0344
300.02913
300.79257
300.52447
300.34413
300.22616
300.15028
300.10135
300.06957
300.0488
300.03513
300.02606
300.02002
300.01603
300.01341
300.01196
300.00993
300.39963
300.24887
300.15524
300.09754
300.06203
300.04011
300.02649
300.01793
300.01249
300.009
300.00674
300.00529
300.00436
300.00384
300.00312
300.18573
300.10934
300.06489
300.03896
300.02375
300.01475
300.00937
300.00612
300.00413
300.00289
300.00211
300.00162
300.00131
300.00114
300.0009
300.08156
300.04594
300.02591
300.01477
300.00857
300.00509
300.0031
300.00195
300.00127
300.00086
300.00061
300.00046
300.00037
300.00031
300.00024
300.03192
300.0171
300.00926
300.00509
300.00285
300.00163
300.00096
300.00058
300.00036
300.00024
300.00017
300.00012
300.00009
300.00008
300.00006
300.01298
300.00656
300.00333
300.00172
300.00091
300.00049
300.00028
300.00016
300.0001
300.00006
300.00004
300.00003
300.00002
300.00002
300.00001
300.00403
300.002
300.001
300.00051
300.00026
300.00014
300.00008
300.00004
300.00002
300.00002
300.00001
300.00001
300.00001
300
300
300.00155
300.00071
300.00033
300.00015
300.00008
300.00004
300.00002
300.00001
300.00001
300
300
300
300
300
300
300.00036
300.00018
300.00009
300.00004
300.00002
300.00001
300.00001
300
300
300
300
300
300
300
300
300.00013
300.00006
300.00003
300.00001
300.00001
300
300
300
300
300
300
300
300
300
300
312.28875
311.76377
311.24273
310.72762
310.22024
309.72235
309.23531
308.76132
308.29976
307.85595
307.42124
307.01879
306.59654
306.27867
305.77214
311.79161
311.3182
310.84462
310.37352
309.90678
309.44621
308.99326
308.55011
308.11633
307.69729
307.28484
306.90139
306.49712
306.19185
305.70284
310.81426
310.43763
310.05454
309.6681
309.28011
308.89226
308.50611
308.12369
307.74491
307.37513
307.00713
306.66176
306.2937
306.01394
305.56046
309.43455
309.18451
308.9224
308.65093
308.37104
308.08406
307.79144
307.49477
307.19434
306.8953
306.5916
306.30166
305.98674
305.74464
305.34396
307.7859
307.67043
307.54099
307.39844
307.24162
307.07133
306.88859
306.69391
306.48804
306.27547
306.05117
305.83033
305.58254
305.38836
305.05563
306.03817
306.04252
306.0366
306.01744
305.98054
305.92704
305.85681
305.76855
305.66365
305.54504
305.40833
305.26479
305.0936
304.95449
304.70143
304.36441
304.46188
304.55055
304.62837
304.69189
304.73929
304.76955
304.77896
304.7704
304.74354
304.69411
304.62925
304.53842
304.4574
304.29112
302.92858
303.07019
303.21174
303.3494
303.47949
303.59875
303.70475
303.79339
303.86398
303.91562
303.94558
303.9536
303.94062
303.91579
303.83813
301.80743
301.95499
302.10962
302.26809
302.42714
302.58331
302.73338
302.87297
302.99933
303.10984
303.20258
303.27302
303.32533
303.3541
303.35661
301.01756
301.14405
301.28192
301.42956
301.58489
301.74528
301.90778
302.06825
302.22329
302.36871
302.50308
302.61828
302.7219
302.79342
302.8664
300.51927
300.61183
300.71696
300.83469
300.96448
301.10509
301.2547
301.41008
301.56838
301.72472
301.87833
302.01839
302.15593
302.25676
302.3856
300.24108
300.29875
300.36803
300.44986
300.54492
300.65332
300.7747
300.90724
301.04939
301.19665
301.34939
301.49518
301.64847
301.76423
301.93129
300.10228
300.13342
300.17326
300.22331
300.285
300.35943
300.44756
300.54899
300.66383
300.78864
300.92539
301.06132
301.21388
301.33115
301.51786
300.03977
300.05459
300.07484
300.10199
300.13768
300.1835
300.24119
300.31144
300.3958
300.49213
300.60412
300.71976
300.85879
300.9668
301.15586
300.0142
300.02049
300.02967
300.04283
300.06135
300.08673
300.12091
300.16513
300.22177
300.28986
300.37442
300.46496
300.58237
300.67409
300.85115
300.00467
300.00707
300.01081
300.01653
300.02519
300.03788
300.05626
300.08158
300.11646
300.16062
300.21972
300.28521
300.3776
300.4501
300.60485
300.00141
300.00224
300.00362
300.00587
300.00952
300.01525
300.02425
300.03745
300.05717
300.08343
300.12178
300.16558
300.23345
300.28752
300.41374
300.00039
300.00066
300.00112
300.00191
300.00331
300.00565
300.00967
300.01591
300.02618
300.04048
300.06359
300.09068
300.13719
300.17564
300.27173
300.0001
300.00018
300.00032
300.00057
300.00106
300.00192
300.00356
300.00624
300.01117
300.01826
300.03121
300.04669
300.0764
300.10228
300.17115
300.00002
300.00004
300.00008
300.00016
300.00031
300.0006
300.00121
300.00224
300.00443
300.00763
300.01436
300.02253
300.04018
300.05661
300.10323
300.00001
300.00001
300.00002
300.00004
300.00009
300.00017
300.00038
300.00075
300.00162
300.00297
300.00615
300.01022
300.01986
300.02969
300.05951
300
300
300
300.00001
300.00002
300.00005
300.00011
300.00023
300.00054
300.00108
300.00244
300.00436
300.0092
300.01471
300.03274
300
300
300
300
300
300.00001
300.00003
300.00007
300.00017
300.00037
300.00089
300.00174
300.00398
300.00687
300.01716
300
300
300
300
300
300
300.00001
300.00002
300.00005
300.00011
300.0003
300.00065
300.0016
300.00301
300.00856
300.00001
300
300
300
300
300
300
300
300
300
300
300
300
300
300
300
300
300
300
300
300
300
300
300
300
300
300
300
300
300
300
300
300
300
300
300
300
300
300
300
300
300
300
300
300
300
300
300
300
300
300
300
300
300
300
300
300
300
300
300
300
300
300
300
300
300
300
300
300
300
300
300
300
300
300
300
300
300
300
300
300
300
300
300
300
300
300
300
300
300
300
300
300
300
300
300
300
300
300
300
300
300
300
300
300
300
300
300
300
300
300
300
300
300
300
300
300
300
300
300
300
300
300
300
300
300
300
300
300
300
300
300
300
300
300
300
300
300
300
300
300
300
300
300
300.00001
300.00001
300.00001
300
300
300
300
300
300
300
300
300
300
300
300
300
300
300
300
300
300
300
300
300
300
300
300
300
300
300
300
300
300
300
300
300
300
300
300
300
300
300
300
300
300
300
300
300
300
300
300
300
300
300
300
300
300
300
300
300
300
300
300
300
300
300
300
300
300
300
300
300
300
300
300
300
300
300
300
300
300
300
300
300
300
300
300
300
300
300
300
300
300
300
300
300
300
300
300
300
300
300
300
300
300
300
300
300
300
300
300
300
300
300
300
300
300
300
300
300
300
300
300
300
300
300
300
300
300
300
300
300
300
300
300
300
300
300
300
300
300
300
300.00001
300.00002
300.00004
300.00011
300.00027
300.00071
300.00146
300.00463
300
300
300
300
300
300
300
300
300
300.00001
300.00003
300.00009
300.00024
300.00057
300.0021
300
300
300
300
300
300
300
300
300
300
300
300.00002
300.00004
300.00012
300.00056
300
300
300
300
300
300
300
300
300
300
300
300
300
300.00001
300.00007
300
300
300
300
300
300
300
300
300
300
300
300
300
300
300
300
300
300
300
300
300
300
300
300
300
300
300
300
300
300
300
300
300
300
300
300
300
300
300
300
300
300
300
300
300
300
300
300
300
300
300
300
300
300
300
300
300
300
300
300
300
300
300
300
300
300
300
300
300
300
300
300
300
300
300
399.96976
399.90334
399.82379
399.72854
399.61453
399.47813
399.315
399.12004
398.88717
398.60927
398.27793
397.88336
397.41411
396.857
396.19685
395.41646
394.49651
393.41565
392.15082
390.67775
388.97189
387.00983
384.77119
382.24119
379.41354
376.2936
372.90092
369.27073
365.45304
361.50951
357.50767
353.51293
349.59506
345.81089
342.19404
338.76504
335.53321
332.49167
329.56018
399.96975
399.90329
399.8237
399.72841
399.61434
399.47786
399.31464
399.11955
398.88653
398.60844
398.27686
397.88198
397.41236
396.85478
396.19407
395.413
394.49224
393.41045
392.14454
390.67025
388.96306
386.99956
384.75941
382.22784
379.39857
376.27689
372.88223
369.2495
365.42828
361.47944
357.46961
353.46356
349.53106
345.72412
342.07525
338.60304
335.31519
332.20476
329.15891
399.96969
399.90311
399.82336
399.72788
399.61359
399.47684
399.31331
399.11784
398.88437
398.60573
398.2735
397.87785
397.4073
396.84863
396.18662
395.40403
394.4815
393.39765
392.1294
390.65249
388.94241
386.97578
384.73232
382.19728
379.36439
376.23879
372.83961
369.20111
365.37182
361.41102
357.38326
353.35462
349.38866
345.53231
341.8148
338.25085
334.84535
331.59334
328.3166
399.96958
399.90278
399.82277
399.72696
399.61229
399.47508
399.31099
399.11487
398.88061
398.60103
398.26769
397.87072
397.39861
396.83808
396.17389
395.38875
394.46326
393.376
392.10388
390.62261
388.90771
386.93585
384.68678
382.14578
379.30652
376.17391
372.76648
369.11744
365.27364
361.29158
357.23566
353.16793
349.14435
345.20581
341.37604
337.66455
334.07345
330.60567
326.98907
399.96943
399.90229
399.82188
399.72559
399.61034
399.47245
399.30754
399.11043
398.875
398.59403
398.25902
397.86007
397.38562
396.82233
396.15491
395.36597
394.43606
393.34373
392.06581
390.57802
388.85585
386.87601
384.61827
382.06789
379.21838
376.0742
372.65295
368.98619
365.11845
361.10523
357.00547
352.87549
348.76316
344.70144
340.7072
336.7848
332.93586
329.18241
325.14338
399.96922
399.90161
399.82063
399.72368
399.60762
399.46877
399.3027
399.10422
398.86715
398.58422
398.24689
397.84518
397.36745
396.80029
396.12831
395.33405
394.39795
393.29845
392.01233
390.51524
388.78264
386.79122
384.5207
381.95621
379.09096
375.92859
372.48523
368.79133
364.88868
360.82786
356.66182
352.43912
348.19817
343.96293
339.74359
335.54217
331.36623
327.27269
322.78243
399.96893
399.90069
399.81895
399.72109
399.60395
399.4638
399.29618
399.09585
398.85656
398.57099
398.23052
397.82507
397.34292
396.77054
396.09239
395.29091
394.34637
393.23711
391.93976
390.42984
388.68274
386.67501
384.38622
381.80113
378.91252
375.72311
372.24759
368.51354
364.55871
360.42761
356.16527
351.81069
347.39189
342.92417
338.4141
333.86881
329.31388
324.85879
319.97012
399.96855
399.89948
399.81675
399.71769
399.59912
399.45726
399.2876
399.08482
398.84262
398.55358
398.20897
397.7986
397.31061
396.73131
396.04503
395.23397
394.27824
393.15596
391.84355
390.31636
388.54953
386.51941
384.20528
381.59146
378.66976
375.44157
371.91959
368.12733
364.0971
359.86576
355.46871
350.93416
346.28005
341.51609
336.65283
331.71597
326.76725
321.98311
316.8441
399.96806
399.89791
399.81389
399.71329
399.59288
399.4488
399.27651
399.07057
398.82461
398.53107
398.18111
397.76437
397.26883
396.68058
395.98373
395.16023
394.18993
393.05064
391.7185
390.16853
388.37553
386.31546
383.96703
381.31381
378.34634
375.06428
371.47689
367.60277
363.46726
359.09801
354.51965
349.74963
344.79852
339.67772
334.41504
329.07455
323.77516
318.76424
313.60374
399.96744
399.89592
399.81027
399.7077
399.58494
399.43806
399.26241
399.05246
398.80171
398.50246
398.14569
397.72085
397.21569
396.61604
395.90571
395.06633
394.07737
392.91626
391.5587
389.97923
388.15215
386.05273
383.65885
380.95297
377.92403
374.56871
370.89206
366.9065
362.62904
358.0771
353.26439
348.19988
342.89334
337.37037
331.69511
325.99204
320.45439
315.38874
310.47456
399.96666
399.89343
399.80572
399.70071
399.57501
399.42462
399.24476
399.02979
398.77304
398.46663
398.10133
397.66634
397.14912
396.53517
395.80791
394.94855
393.93609
392.74741
391.35763
389.74061
387.86986
385.71974
383.26704
380.49257
377.38272
373.93052
370.13572
366.00344
361.54143
356.7567
351.65392
346.2391
340.5325
334.59186
328.53964
322.57884
316.97982
312.07803
307.66042
399.9657
399.89036
399.80012
399.69208
399.56275
399.40802
399.22298
399.00181
398.73765
398.42241
398.04658
397.59906
397.06693
396.4353
395.68709
394.80298
393.76134
392.53837
391.10837
389.44433
387.51876
385.30477
382.77746
379.91535
376.70162
373.1248
369.17838
364.85938
360.16611
355.09663
349.65114
343.84234
337.71705
331.38644
325.05097
318.9979
313.55546
309.04206
305.30354
399.96453
399.88662
399.79331
399.68158
399.54785
399.38784
399.19649
398.96778
398.69462
398.36863
397.97998
397.5172
396.96692
396.31374
395.53999
394.62566
393.54836
392.28341
390.80414
389.08236
387.08919
384.79605
382.17587
379.20428
375.86053
372.12782
367.99275
363.44407
358.47179
353.06864
347.23829
341.01399
334.48861
327.84722
321.37823
315.43966
310.37671
306.43789
303.46517
399.96313
399.88214
399.78514
399.669
399.52998
399.36365
399.16474
398.92699
398.64303
398.30416
397.90016
397.41907
396.84703
396.16799
395.36358
394.41296
393.2928
391.97732
390.4386
388.64698
386.57185
384.18249
381.44911
378.34384
374.84137
370.91904
366.55638
361.73474
356.43865