/*--------------------------------*- C++ -*----------------------------------*\
  =========                 |
  \\      /  F ield         | OpenFOAM: The Open Source CFD Toolbox
   \\    /   O peration     | Website:  https://openfoam.org
    \\  /    A nd           | Version:  13
     \\/     M anipulation  |
\*---------------------------------------------------------------------------*/
FoamFile
{
    format          ascii;
    class           volVectorField;
    location        "0";
    object          U;
}
// * * * * * * * * * * * * * * * * * * * * * * * * * * * * * * * * * * * * * //

dimensions      [ 0 1 -1 0 0 0 0 ];

internalField   nonuniform List<vector> 
5388
(
(-4.344e-09 1.57721e-07 -3.67748e-16)
(-2.99497e-08 5.01266e-07 6.40301e-16)
(-8.43579e-08 9.08893e-07 1.49702e-18)
(-1.86226e-07 1.39127e-06 3.58234e-18)
(-3.58298e-07 1.96061e-06 0)
(-6.34707e-07 2.6304e-06 -1.31026e-15)
(-1.06446e-06 3.41528e-06 1.56395e-15)
(-1.71674e-06 4.33066e-06 2.91296e-17)
(-2.68836e-06 5.39211e-06 0)
(-4.11348e-06 6.61434e-06 0)
(-6.17565e-06 8.0097e-06 0)
(-9.12245e-06 9.58604e-06 0)
(-1.32825e-05 1.13438e-05 5.39207e-16)
(-1.90826e-05 1.32723e-05 5.02746e-15)
(-2.70639e-05 1.5345e-05 -1.162e-14)
(-3.78898e-05 1.75138e-05 1.66074e-15)
(-5.23396e-05 1.97038e-05 1.49919e-14)
(-7.12756e-05 2.18075e-05 -4.16295e-15)
(-9.55675e-05 2.36811e-05 0)
(-0.000125961 2.5144e-05 0)
(-0.000162874 2.5984e-05 0)
(-0.000206111 2.59694e-05 0)
(-0.000254524 2.48669e-05 -2.0869e-14)
(-0.000305641 2.24645e-05 2.05761e-14)
(-0.000355369 1.85691e-05 0)
(-0.000397382 1.27002e-05 0)
(-0.000424801 5.82197e-06 -1.46515e-13)
(-0.000427518 -1.87367e-06 0)
(-0.000395174 -9.79393e-06 0)
(-0.000320308 -2.08743e-05 2.81013e-13)
(-0.000190174 -3.14746e-05 -2.96597e-14)
(1.96978e-06 -4.22436e-05 5.64694e-14)
(0.00026369 -5.30357e-05 7.52957e-13)
(0.000599409 -6.36386e-05 5.1265e-14)
(0.00101457 -7.36835e-05 -1.56598e-12)
(0.00150101 -8.33893e-05 9.34786e-14)
(0.00208434 -9.16511e-05 -8.92187e-14)
(0.00268455 -9.80664e-05 0)
(0.00345378 -0.00011441 -5.14039e-12)
(-3.32359e-08 4.72381e-07 0)
(-1.21255e-07 1.50115e-06 -2.48769e-15)
(-2.49073e-07 2.72155e-06 5.94866e-15)
(-4.36765e-07 4.16579e-06 -3.47629e-18)
(-7.08695e-07 5.87043e-06 -8.50521e-15)
(-1.10049e-06 7.87589e-06 5.08641e-15)
(-1.66248e-06 1.0226e-05 2.37178e-17)
(-2.46467e-06 1.29669e-05 -7.26698e-15)
(-3.604e-06 1.61453e-05 8.61549e-15)
(-5.21324e-06 1.9805e-05 1.02317e-14)
(-7.4729e-06 2.39831e-05 -1.17376e-14)
(-1.06243e-05 2.8703e-05 1.38473e-14)
(-1.49857e-05 3.39657e-05 -3.40852e-14)
(-2.09681e-05 3.97388e-05 1.83508e-14)
(-2.90885e-05 4.5942e-05 -2.54781e-14)
(-3.99766e-05 5.24308e-05 2.43125e-14)
(-5.43652e-05 5.89795e-05 0)
(-7.30547e-05 6.52644e-05 4.08031e-15)
(-9.68357e-05 7.08528e-05 -3.56997e-14)
(-0.000126354 7.52016e-05 3.82751e-14)
(-0.000161905 7.76728e-05 0)
(-0.000203155 7.75699e-05 -9.9429e-26)
(-0.000248792 7.41927e-05 -4.15905e-14)
(-0.000296158 6.69176e-05 -8.22906e-14)
(-0.000340937 5.52979e-05 2.4061e-13)
(-0.000376956 3.92059e-05 -7.72765e-14)
(-0.000396452 1.91325e-05 -1.4773e-13)
(-0.000389753 -6.78929e-06 0)
(-0.000346184 -3.37544e-05 0)
(-0.000256454 -6.36949e-05 -7.59355e-13)
(-0.000109431 -9.53405e-05 0)
(0.000103323 -0.000127584 2.28656e-13)
(0.000389929 -0.000159802 -8.68876e-13)
(0.000755693 -0.000191331 -2.06507e-13)
(0.00120689 -0.000221017 1.57099e-12)
(0.00173646 -0.000249472 0)
(0.00237116 -0.000273242 0)
(0.00302849 -0.000291739 -1.06838e-11)
(0.00388011 -0.000336275 5.60621e-12)
(-9.15414e-08 7.79072e-07 -1.38498e-15)
(-3.05511e-07 2.47571e-06 2.35506e-18)
(-5.81515e-07 4.48827e-06 -2.88692e-15)
(-9.42409e-07 6.86995e-06 3.46112e-15)
(-1.41583e-06 9.681e-06 -8.06832e-18)
(-2.04051e-06 1.2988e-05 1.92829e-17)
(-2.86927e-06 1.68633e-05 -2.30206e-17)
(-3.97387e-06 2.13828e-05 1.09795e-16)
(-5.45112e-06 2.66232e-05 8.23421e-15)
(-7.43141e-06 3.26568e-05 -9.93672e-15)
(-1.00881e-05 3.95441e-05 -3.67852e-16)
(-1.36499e-05 4.73232e-05 4.34189e-16)
(-1.84134e-05 5.59947e-05 -1.02015e-15)
(-2.47562e-05 6.55039e-05 -1.19113e-15)
(-3.31457e-05 7.57162e-05 4.69155e-14)
(-4.4141e-05 8.63908e-05 -5.06464e-14)
(-5.83788e-05 9.71513e-05 7.17252e-15)
(-7.65308e-05 0.000107459 -8.00629e-15)
(-9.9222e-05 0.000116594 1.75668e-14)
(-0.000126891 0.000123652 -7.56047e-14)
(-0.000159583 0.000127572 1.59352e-13)
(-0.000196671 0.000127201 -4.11089e-14)
(-0.000236519 0.000121375 3.0224e-25)
(-0.000276109 0.000109056 -8.25822e-14)
(-0.000310736 8.95051e-05 -3.2313e-13)
(-0.000333869 6.24429e-05 0)
(-0.000336981 2.82324e-05 4.49255e-13)
(-0.000310347 -1.30264e-05 4.28631e-13)
(-0.000242911 -5.88187e-05 -2.71721e-13)
(-0.000123416 -0.000108651 7.7422e-13)
(5.90623e-05 -0.000160963 -2.4496e-13)
(0.000314556 -0.000214079 2.0898e-12)
(0.000652557 -0.000266834 -3.08007e-12)
(0.00108004 -0.000317993 2.0014e-23)
(0.00160473 -0.000365528 -3.94223e-13)
(0.00222144 -0.000410285 -7.4362e-13)
(0.0029583 -0.000446053 -3.70579e-23)
(0.00372756 -0.000474048 1.10715e-11)
(0.00473376 -0.000533117 0)
(-1.77882e-07 1.0649e-06 -1.31239e-18)
(-5.78313e-07 3.3839e-06 0)
(-1.07351e-06 6.13451e-06 0)
(-1.69043e-06 9.38942e-06 -6.54712e-18)
(-2.46146e-06 1.32308e-05 -8.00208e-15)
(-3.42962e-06 1.77496e-05 9.56291e-15)
(-4.65142e-06 2.30441e-05 4.4687e-17)
(-6.20062e-06 2.92179e-05 -1.06578e-16)
(-8.17368e-06 3.63751e-05 1.17411e-27)
(-1.06962e-05 4.46139e-05 0)
(-1.39305e-05 5.40156e-05 0)
(-1.80848e-05 6.46305e-05 -2.7008e-14)
(-2.34221e-05 7.64574e-05 3.27415e-14)
(-3.02673e-05 8.94179e-05 2.31899e-15)
(-3.90113e-05 0.000103324 -5.37937e-15)
(-5.01039e-05 0.00011784 0)
(-6.40319e-05 0.000132444 -7.01567e-15)
(-8.12685e-05 0.000146389 0)
(-0.000102183 0.000158677 -1.72778e-14)
(-0.000126892 0.000168055 7.46196e-14)
(-0.000155046 0.000173056 7.89404e-14)
(-0.000185575 0.000172103 -4.08949e-13)
(-0.000216335 0.00016358 4.15284e-13)
(-0.000243743 0.00014606 7.36338e-25)
(-0.00026249 0.000118554 1.62649e-13)
(-0.000265387 8.06899e-05 0)
(-0.000243224 3.29028e-05 0)
(-0.000185485 -2.41753e-05 -8.71426e-13)
(-8.03556e-05 -8.77595e-05 6.38825e-24)
(8.48795e-05 -0.000156509 -2.62519e-13)
(0.000322281 -0.000228198 0)
(0.000643641 -0.000300545 1.87918e-12)
(0.00106037 -0.000371693 3.54884e-12)
(0.00158152 -0.000439645 8.36089e-13)
(0.00221632 -0.000501351 -7.06756e-12)
(0.00296131 -0.000557661 -1.46737e-12)
(0.00384425 -0.000599019 1.22498e-11)
(0.00476907 -0.000631675 1.25129e-12)
(0.00597343 -0.000684072 -3.38903e-12)
(-2.88102e-07 1.31501e-06 -2.60672e-15)
(-9.26411e-07 4.17853e-06 9.00084e-28)
(-1.70103e-06 7.57468e-06 5.43672e-15)
(-2.64394e-06 1.15932e-05 -6.49304e-15)
(-3.79338e-06 1.63353e-05 -1.51966e-17)
(-5.1976e-06 2.19128e-05 9.26254e-15)
(-6.91713e-06 2.84467e-05 1.10598e-14)
(-9.02772e-06 3.60642e-05 -2.64842e-14)
(-1.16242e-05 4.48929e-05 1.58923e-14)
(-1.48245e-05 5.50522e-05 0)
(-1.8775e-05 6.66405e-05 -2.22162e-14)
(-2.36546e-05 7.97167e-05 5.24945e-14)
(-2.96787e-05 9.42752e-05 -3.08744e-14)
(-3.70999e-05 0.000110213 0)
(-4.62021e-05 0.000127289 5.69502e-26)
(-5.72852e-05 0.000145079 -6.03067e-15)
(-7.06306e-05 0.000162924 -9.60338e-14)
(-8.64397e-05 0.000179882 9.23372e-14)
(-0.000104733 0.000194698 -1.01902e-13)
(-0.00012519 0.00020579 -5.29293e-26)
(-0.000146902 0.000211304 -1.8816e-25)
(-0.000168216 0.000209287 1.62612e-13)
(-0.000186272 0.000197725 6.49741e-25)
(-0.000196712 0.00017483 -1.66029e-13)
(-0.000193398 0.000139414 2.47809e-24)
(-0.000168262 9.10532e-05 -9.56322e-13)
(-0.000111194 3.02911e-05 -3.07743e-13)
(-1.05544e-05 -4.16491e-05 8.84751e-13)
(0.000146659 -0.000121785 0)
(0.00037457 -0.000207738 0)
(0.000686999 -0.000296574 0)
(0.00109774 -0.000385316 -4.73162e-13)
(0.00162031 -0.000471271 -4.00231e-12)
(0.00226563 -0.000551432 8.32589e-13)
(0.00304337 -0.000621587 4.65007e-12)
(0.00395034 -0.000682263 1.43156e-12)
(0.005009 -0.000720149 -1.0475e-11)
(0.00611217 -0.000750391 0)
(0.00751582 -0.000769006 0)
(-4.1524e-07 1.51549e-06 5.06119e-15)
(-1.32764e-06 4.81525e-06 -8.81334e-15)
(-2.42363e-06 8.72819e-06 -1.05511e-14)
(-3.74073e-06 1.33575e-05 2.524e-14)
(-5.32338e-06 1.88193e-05 -1.51011e-14)
(-7.22509e-06 2.52419e-05 7.05026e-17)
(-9.51009e-06 3.27637e-05 8.41893e-17)
(-1.22549e-05 4.15296e-05 -2.57072e-14)
(-1.55503e-05 5.16849e-05 3.06177e-14)
(-1.95026e-05 6.33642e-05 3.63965e-14)
(-2.42354e-05 7.66771e-05 -4.31585e-14)
(-2.98881e-05 9.16857e-05 5.26055e-14)
(-3.66135e-05 0.000108376 -6.19162e-14)
(-4.45692e-05 0.000126618 0)
(-5.39018e-05 0.000146122 1.02125e-14)
(-6.47173e-05 0.00016638 5.88337e-15)
(-7.7032e-05 0.000186609 -1.69768e-25)
(-9.07001e-05 0.000205698 3.01532e-14)
(-0.000105303 0.000222156 -1.66856e-13)
(-0.000119976 0.000234064 2.90193e-13)
(-0.000133026 0.000239184 -2.31988e-13)
(-0.000142305 0.000235531 1.61544e-13)
(-0.000143643 0.000220549 0)
(-0.000131918 0.000192133 -3.32669e-13)
(-9.99179e-05 0.000148993 6.58621e-13)
(-3.84585e-05 9.06985e-05 1.74099e-24)
(6.37322e-05 1.79882e-05 1.55653e-12)
(0.000219661 -6.73451e-05 5.95881e-13)
(0.000443811 -0.000161958 -5.66453e-13)
(0.000751865 -0.000262462 0)
(0.0011596 -0.000365076 -4.04038e-12)
(0.00168282 -0.000465992 -2.84435e-12)
(0.00233676 -0.000561507 9.74276e-12)
(0.00313301 -0.000647319 0)
(0.00407918 -0.000718091 1.21158e-11)
(0.00516895 -0.00077373 -1.10434e-11)
(0.00641083 -0.000796926 -1.98993e-11)
(0.00768754 -0.000812165 -1.77018e-11)
(0.00923389 -0.000784086 3.48481e-11)
(-5.48096e-07 1.64982e-06 4.91096e-15)
(-1.74679e-06 5.24152e-06 0)
(-3.17735e-06 9.49999e-06 0)
(-4.88301e-06 1.45372e-05 2.39301e-17)
(-6.91375e-06 2.04787e-05 0)
(-9.32746e-06 2.74634e-05 -3.42102e-17)
(-1.21906e-05 3.56403e-05 -8.17089e-17)
(-1.55781e-05 4.51653e-05 -1.9494e-16)
(-1.95729e-05 5.61933e-05 0)
(-2.42644e-05 6.88665e-05 0)
(-2.97449e-05 8.32977e-05 0)
(-3.61024e-05 9.95457e-05 -1.54894e-15)
(-4.34098e-05 0.000117582 1.82411e-15)
(-5.17064e-05 0.00013725 0)
(-6.09669e-05 0.000158209 -8.05962e-26)
(-7.10577e-05 0.000179874 -1.03286e-13)
(-8.16669e-05 0.000201357 9.17075e-14)
(-9.22381e-05 0.000221399 -1.47637e-13)
(-0.000101834 0.000238403 6.55373e-14)
(-0.000108897 0.00025019 0)
(-0.000110918 0.000254439 7.64631e-14)
(-0.000105035 0.0002481 0)
(-8.48023e-05 0.000228931 -2.74981e-24)
(-4.53174e-05 0.000194854 9.9898e-13)
(2.24069e-05 0.000144341 0)
(0.000128935 7.69977e-05 -6.48075e-13)
(0.000286949 -6.15847e-06 -1.25369e-12)
(0.000511017 -0.000102756 1.20008e-12)
(0.000817257 -0.000208885 0)
(0.001223 -0.000320167 1.07684e-12)
(0.00174585 -0.000431846 -2.02263e-12)
(0.00240311 -0.000539133 4.72119e-12)
(0.00321063 -0.000637104 -7.00422e-12)
(0.00417796 -0.000719882 -1.60984e-12)
(0.00530631 -0.000781238 -2.19713e-11)
(0.00657966 -0.000820664 7.89984e-12)
(0.00798741 -0.000819126 3.97423e-11)
(0.00939211 -0.000813142 1.63988e-11)
(0.0109715 -0.000723979 -3.92167e-23)
(-6.73793e-07 1.70822e-06 4.76518e-15)
(-2.14245e-06 5.42598e-06 0)
(-3.88697e-06 9.83259e-06 0)
(-5.95507e-06 1.50431e-05 -5.07112e-28)
(-8.4006e-06 2.11865e-05 0)
(-1.12837e-05 2.84045e-05 0)
(-1.46698e-05 3.6849e-05 0)
(-1.86281e-05 4.66777e-05 2.44085e-14)
(-2.32284e-05 5.80455e-05 -5.77076e-14)
(-2.85355e-05 7.10927e-05 3.43136e-14)
(-3.46e-05 8.59256e-05 4.07119e-14)
(-4.14452e-05 0.000102591 -9.78205e-14)
(-4.90456e-05 0.000121041 6.02899e-14)
(-5.72969e-05 0.000141085 1.28889e-13)
(-6.59719e-05 0.000162337 -1.5013e-13)
(-7.46566e-05 0.000184147 1.90229e-13)
(-8.26522e-05 0.000205535 -3.83883e-13)
(-8.89453e-05 0.000225261 2.89024e-13)
(-9.20051e-05 0.000241464 6.43195e-14)
(-8.908e-05 0.000251646 -2.81436e-13)
(-7.6476e-05 0.000253276 4.53208e-13)
(-5.03718e-05 0.000243479 -3.18031e-13)
(-5.11445e-06 0.00022001 -2.86916e-24)
(6.81027e-05 0.000180324 -3.32585e-13)
(0.000179015 0.000122955 3.31471e-13)
(0.000339801 4.77977e-05 -1.86485e-24)
(0.000564739 -4.37395e-05 6.29311e-13)
(0.000870069 -0.000148662 6.02508e-13)
(0.00127358 -0.000262326 -2.85914e-12)
(0.00179408 -0.000379319 -3.23151e-12)
(0.00245047 -0.000493819 9.06411e-12)
(0.00326041 -0.000599926 -4.67114e-12)
(0.00423817 -0.00069127 -7.7285e-12)
(0.00538675 -0.000760686 -1.0933e-11)
(0.00669611 -0.000801327 2.24526e-11)
(0.00812958 -0.000815163 -2.24019e-11)
(0.0096478 -0.00077836 -1.74531e-11)
(0.0110994 -0.000739471 1.89259e-12)
(0.0125844 -0.000596709 -2.60801e-11)
(-7.74237e-07 1.6778e-06 -9.24519e-15)
(-2.4568e-06 5.32776e-06 7.86333e-18)
(-4.44724e-06 9.65208e-06 1.92804e-14)
(-6.79493e-06 1.47626e-05 -5.60177e-28)
(-9.55418e-06 2.07842e-05 0)
(-1.27829e-05 2.78533e-05 -6.44365e-17)
(-1.65402e-05 3.61154e-05 0)
(-2.08827e-05 4.572e-05 0)
(-2.5858e-05 5.68118e-05 4.37643e-16)
(-3.14948e-05 6.95179e-05 6.66307e-14)
(-3.77882e-05 8.39281e-05 -1.58151e-13)
(-4.46773e-05 0.000100068 9.50337e-14)
(-5.20146e-05 0.000117864 -1.17203e-13)
(-5.95211e-05 0.000137092 2.58819e-13)
(-6.67251e-05 0.000157325 -1.50875e-13)
(-7.28804e-05 0.000177863 0)
(-7.68545e-05 0.000197663 1.99883e-13)
(-7.69644e-05 0.000215283 -6.57637e-26)
(-7.08049e-05 0.000228725 -4.41526e-13)
(-5.48982e-05 0.000235708 5.536e-13)
(-2.56412e-05 0.000233641 -4.47233e-13)
(2.3769e-05 0.000220002 0)
(0.000100374 0.000191583 -6.52699e-13)
(0.000214048 0.000146286 -3.03295e-24)
(0.000376316 8.29306e-05 -6.62771e-13)
(0.000601064 1.73726e-06 -1.30145e-12)
(0.000904323 -9.53869e-05 0)
(0.00130408 -0.000204729 2.41228e-12)
(0.00181962 -0.000320737 1.14262e-12)
(0.00247075 -0.00043691 2.14476e-12)
(0.00327654 -0.000546308 -4.98583e-12)
(0.00425303 -0.000641852 9.17999e-13)
(0.00540916 -0.000715671 6.68562e-12)
(0.00673271 -0.000761481 2.2543e-11)
(0.00820036 -0.000768301 -1.33386e-12)
(0.0097484 -0.000742407 2.10449e-11)
(0.0112966 -0.000669987 -2.02996e-11)
(0.0126828 -0.000601747 3.50112e-12)
(0.0139488 -0.000426557 0)
(-8.26333e-07 1.54664e-06 -8.9751e-15)
(-2.6165e-06 4.90907e-06 1.5611e-14)
(-4.72517e-06 8.89011e-06 -1.86904e-14)
(-7.19912e-06 1.35913e-05 -4.37306e-17)
(-1.00879e-05 1.9125e-05 -5.23094e-17)
(-1.34408e-05 2.56134e-05 6.25315e-17)
(-1.7303e-05 3.31855e-05 0)
(-2.17092e-05 4.19714e-05 -1.78247e-16)
(-2.66733e-05 5.20937e-05 5.39522e-14)
(-3.21743e-05 6.36544e-05 3.36253e-26)
(-3.81342e-05 7.67152e-05 -1.52382e-13)
(-4.43876e-05 9.12704e-05 8.94787e-14)
(-5.06385e-05 0.000107211 -1.03858e-13)
(-5.64013e-05 0.000124279 1.29787e-13)
(-6.09211e-05 0.000142008 -1.83572e-14)
(-6.30688e-05 0.000159663 0)
(-6.12061e-05 0.000176168 -2.43852e-14)
(-5.30164e-05 0.000190057 2.2118e-13)
(-3.53069e-05 0.000199417 -3.09126e-13)
(-3.78022e-06 0.000201939 0)
(4.72095e-05 0.000194978 1.47019e-13)
(0.000125054 0.000175843 -6.23518e-13)
(0.000238887 0.000142038 9.72189e-13)
(0.000400097 9.15619e-05 9.90928e-13)
(0.000622166 2.35654e-05 -1.94464e-25)
(0.00092082 -6.12312e-05 1.94854e-12)
(0.00131386 -0.000160269 -1.25838e-12)
(0.00182091 -0.000268996 -2.40624e-12)
(0.00246222 -0.000380768 0)
(0.00325764 -0.000487966 1.06222e-12)
(0.00422456 -0.000582591 4.90701e-12)
(0.00537432 -0.000656376 5.37558e-12)
(0.00670242 -0.0007013 -1.61487e-12)
(0.00818246 -0.000708378 -1.00524e-11)
(0.00976479 -0.000675518 -9.86087e-24)
(0.0113491 -0.000607662 -1.97176e-11)
(0.0128245 -0.000500146 2.83731e-11)
(0.0140359 -0.000411028 3.25832e-12)
(0.0149946 -0.000234789 -5.62639e-12)
(-8.0685e-07 1.31371e-06 -8.7065e-15)
(-2.54736e-06 4.16643e-06 1.517e-14)
(-4.58577e-06 7.53991e-06 -1.77283e-17)
(-6.96007e-06 1.15179e-05 2.12172e-17)
(-9.70762e-06 1.61919e-05 2.60401e-14)
(-1.28604e-05 2.16602e-05 -3.10693e-14)
(-1.6439e-05 2.80243e-05 -3.7113e-14)
(-2.04433e-05 3.53834e-05 4.46339e-14)
(-2.48391e-05 4.38255e-05 0)
(-2.95372e-05 5.34147e-05 0)
(-3.43652e-05 6.41722e-05 7.34032e-14)
(-3.90274e-05 7.60506e-05 -8.69172e-14)
(-4.3049e-05 8.88993e-05 0)
(-4.57017e-05 0.000102422 1.18556e-13)
(-4.59042e-05 0.000116122 -1.42923e-13)
(-4.20944e-05 0.000129246 0)
(-3.20682e-05 0.000140722 1.66547e-13)
(-1.27836e-05 0.000149113 -2.43228e-13)
(1.98677e-05 0.000152592 2.42292e-13)
(7.13123e-05 0.000148979 -2.67313e-13)
(0.000148568 0.000135847 -7.2438e-13)
(0.00026052 0.000110733 1.54055e-12)
(0.000418123 7.14781e-05 -3.21084e-13)
(0.000634593 1.66036e-05 -1.31163e-12)
(0.00092539 -5.41385e-05 -1.31409e-12)
(0.00130811 -0.000139306 6.46697e-13)
(0.00180221 -0.000235526 -6.26352e-13)
(0.00242864 -0.000337276 1.19573e-12)
(0.0032076 -0.000436705 1.12604e-12)
(0.00415741 -0.000525089 -2.09336e-12)
(0.00529105 -0.000593568 9.60166e-13)
(0.00660981 -0.000633083 -1.39013e-11)
(0.00809289 -0.000635593 6.20232e-12)
(0.00969122 -0.000596856 2.73058e-12)
(0.0113159 -0.000516974 -1.90197e-11)
(0.0128409 -0.000410094 3.08206e-11)
(0.0141404 -0.000282319 -1.41736e-11)
(0.0150909 -0.000191197 2.44804e-11)
(0.0157122 -4.42559e-05 -5.31256e-12)
(-6.87065e-07 9.77776e-07 0)
(-2.15788e-06 3.09596e-06 0)
(-3.86268e-06 5.59474e-06 0)
(-5.82221e-06 8.5327e-06 2.05882e-17)
(-8.05164e-06 1.19721e-05 0)
(-1.05538e-05 1.59778e-05 0)
(-1.33106e-05 2.06132e-05 0)
(-1.6271e-05 2.59354e-05 -4.31514e-14)
(-1.93324e-05 3.19859e-05 5.12334e-14)
(-2.2315e-05 3.87787e-05 -6.09694e-14)
(-2.49254e-05 4.62834e-05 7.2407e-14)
(-2.67062e-05 5.44012e-05 0)
(-2.69681e-05 6.29347e-05 3.16375e-15)
(-2.46981e-05 7.15494e-05 3.7184e-15)
(-1.84408e-05 7.97289e-05 8.69196e-15)
(-6.14692e-06 8.67253e-05 0)
(1.5015e-05 9.15123e-05 2.32078e-14)
(4.88831e-05 9.27503e-05 0)
(0.000100557 8.87818e-05 0)
(0.000176678 7.76782e-05 -5.24751e-13)
(0.000285701 5.73661e-05 5.70247e-13)
(0.000438155 2.58487e-05 3.03921e-13)
(0.000646828 -1.8457e-05 -9.5245e-13)
(0.000926865 -7.62985e-05 6.4991e-13)
(0.00129569 -0.000147068 -7.83006e-25)
(0.00177265 -0.000228342 -6.42226e-13)
(0.00237851 -0.000315761 2.03805e-23)
(0.00313494 -0.000402609 -1.18387e-12)
(0.00406033 -0.000480004 1.11037e-12)
(0.00516942 -0.000538229 5.13035e-12)
(0.0064669 -0.000568051 -3.73665e-12)
(0.00793899 -0.000560888 6.70339e-12)
(0.00954213 -0.00051123 -5.92793e-12)
(0.0111942 -0.000419586 0)
(0.012775 -0.000296046 8.97062e-12)
(0.0141431 -0.000163359 -1.93533e-11)
(0.0151842 -3.65987e-05 3.34532e-12)
(0.015832 3.39182e-05 -1.74248e-11)
(0.0161431 0.000130083 -4.5654e-11)
(-4.36331e-07 5.44582e-07 -8.19713e-15)
(-1.35027e-06 1.7161e-06 1.42759e-14)
(-2.37799e-06 3.08813e-06 0)
(-3.51219e-06 4.68728e-06 -1.99778e-17)
(-4.7331e-06 6.53868e-06 4.77976e-17)
(-5.99921e-06 8.66478e-06 2.9258e-14)
(-7.23621e-06 1.10817e-05 -1.36535e-16)
(-8.32087e-06 1.37934e-05 1.62956e-16)
(-9.05836e-06 1.67844e-05 -4.93402e-14)
(-9.14994e-06 2.00082e-05 0)
(-8.14859e-06 2.33727e-05 0)
(-5.39822e-06 2.6721e-05 0)
(4.77623e-08 2.98054e-05 -3.07402e-15)
(9.53415e-06 3.22582e-05 7.22982e-15)
(2.4943e-05 3.35565e-05 -2.79056e-13)
(4.88688e-05 3.29876e-05 3.14349e-13)
(8.48327e-05 2.96184e-05 -3.62057e-13)
(0.000137533 2.22818e-05 5.15773e-14)
(0.000213129 9.59328e-06 5.22264e-13)
(0.000319529 -9.97998e-06 0)
(0.000466684 -3.79781e-05 4.2026e-13)
(0.000666807 -7.57142e-05 7.37081e-24)
(0.000934526 -0.000123945 -6.26935e-13)
(0.0012869 -0.000182448 0)
(0.00174323 -0.000249493 -6.45848e-13)
(0.00232423 -0.000321402 1.27217e-12)
(0.00305146 -0.000392684 2.4593e-12)
(0.00394634 -0.000455095 -2.33527e-12)
(0.00502184 -0.000499186 -2.18019e-12)
(0.00628772 -0.000515033 -4.00407e-12)
(0.00773536 -0.000493449 3.61782e-12)
(0.00932945 -0.00042867 0)
(0.0109972 -0.000320413 -5.65108e-12)
(0.0126243 -0.000178266 0)
(0.014069 -2.33541e-05 -1.69829e-11)
(0.0151975 0.000113817 0)
(0.0159362 0.000215218 -3.1883e-12)
(0.0162902 0.000245427 2.50676e-11)
(0.0163581 0.000282534 -1.70617e-22)
(-2.10611e-08 2.54394e-08 3.88365e-18)
(-1.74703e-08 6.29575e-08 0)
(6.30259e-08 8.60259e-08 -1.65855e-14)
(2.69153e-07 8.33408e-08 3.96818e-14)
(6.71507e-07 3.61904e-08 -4.74944e-14)
(1.37454e-06 -8.25892e-08 -5.54532e-17)
(2.53074e-06 -3.12468e-07 3.40527e-14)
(4.36069e-06 -7.10392e-07 -5.68203e-27)
(7.181e-06 -1.35771e-06 -1.3429e-26)
(1.14433e-05 -2.36894e-06 -5.74558e-14)
(1.77868e-05 -3.90355e-06 6.82613e-14)
(2.71098e-05 -6.18015e-06 0)
(4.06645e-05 -9.49415e-06 2.98654e-15)
(6.01804e-05 -1.42371e-05 2.17855e-13)
(8.80234e-05 -2.09168e-05 -2.54981e-13)
(0.000127392 -3.01744e-05 0)
(0.000182557 -4.27912e-05 -3.52867e-13)
(0.000259133 -5.96768e-05 -5.03379e-14)
(0.000364385 -8.18238e-05 3.97125e-13)
(0.000507529 -0.000110214 0)
(0.000700014 -0.000145654 1.37528e-13)
(0.000955714 -0.000188541 5.89131e-13)
(0.001291 -0.000238554 3.09051e-13)
(0.00172472 -0.000294279 -1.26965e-12)
(0.00227776 -0.00035258 6.38202e-13)
(0.00297144 -0.000408247 0)
(0.00382723 -0.000454247 -1.21241e-12)
(0.00486358 -0.000482151 3.44202e-12)
(0.00608869 -0.000480538 0)
(0.00749919 -0.000441014 -1.9449e-12)
(0.00907027 -0.000357054 -3.48955e-12)
(0.0107379 -0.000227885 1.54182e-12)
(0.0123993 -6.21327e-05 5.38566e-12)
(0.0139148 0.000119075 1.16746e-11)
(0.0151409 0.000284025 1.01071e-11)
(0.015979 0.000399903 3.51143e-12)
(0.0164173 0.000454015 0)
(0.0165268 0.000433092 -2.69696e-11)
(0.0164321 0.000414996 4.28055e-11)
(5.94459e-07 -5.61314e-07 -3.76831e-18)
(1.95435e-06 -1.80497e-06 0)
(3.66732e-06 -3.30496e-06 0)
(5.83966e-06 -5.1148e-06 -3.85236e-14)
(8.61176e-06 -7.30188e-06 4.60868e-14)
(1.21733e-05 -9.94808e-06 2.03831e-27)
(1.6781e-05 -1.31537e-05 0)
(2.27829e-05 -1.7042e-05 7.82777e-14)
(3.06521e-05 -2.17644e-05 -3.65996e-16)
(4.10325e-05 -2.75068e-05 -1.11981e-13)
(5.48003e-05 -3.4497e-05 1.32547e-13)
(7.31456e-05 -4.30118e-05 -1.57123e-13)
(9.76802e-05 -5.33852e-05 -1.91484e-13)
(0.000130577 -6.60147e-05 2.18562e-13)
(0.000174744 -8.13624e-05 2.55966e-13)
(0.000234044 -9.99497e-05 -2.97851e-13)
(0.000313551 -0.000122336 -3.43799e-13)
(0.000419842 -0.000149075 3.92868e-13)
(0.000561312 -0.000180636 -4.43473e-13)
(0.000748482 -0.000217276 4.93335e-13)
(0.000994251 -0.000258859 0)
(0.00131403 -0.000304618 -5.78983e-13)
(0.00172568 -0.000352916 3.04254e-13)
(0.00224955 -0.000400983 6.25723e-13)
(0.00290778 -0.000443866 0)
(0.00372088 -0.000474666 0)
(0.00471106 -0.000485109 -1.19167e-12)
(0.0058866 -0.000466537 -1.12347e-12)
(0.00725009 -0.000407012 -1.03823e-12)
(0.00878314 -0.000301651 0)
(0.0104342 -0.000148125 -5.03689e-12)
(0.0121119 4.51975e-05 7.38127e-12)
(0.0136868 0.000257999 -7.71505e-12)
(0.0150091 0.000457253 -6.69466e-12)
(0.0159596 0.000605227 1.55172e-11)
(0.0164976 0.000674525 0)
(0.0166764 0.000667734 5.96241e-12)
(0.0166119 0.000595616 -5.26552e-12)
(0.0164259 0.000533092 4.65464e-12)
(1.44607e-06 -1.18917e-06 -1.49802e-14)
(4.68121e-06 -3.80054e-06 0)
(8.64477e-06 -6.92718e-06 -3.12161e-14)
(1.35217e-05 -1.06641e-05 3.73991e-14)
(1.95437e-05 -1.51304e-05 4.47206e-14)
(2.70117e-05 -2.04646e-05 -5.34188e-14)
(3.63166e-05 -2.68293e-05 1.24781e-16)
(4.79689e-05 -3.44145e-05 1.48956e-16)
(6.26379e-05 -4.34412e-05 0)
(8.12049e-05 -5.41639e-05 4.22951e-16)
(0.000104833 -6.68719e-05 1.00533e-15)
(0.000135059 -8.18893e-05 0)
(0.000173915 -9.95701e-05 1.83184e-13)
(0.000224075 -0.000120289 -2.09077e-13)
(0.000289053 -0.00014442 -2.56665e-13)
(0.000373431 -0.000172306 2.71718e-13)
(0.000483128 -0.000204202 0)
(0.000625711 -0.000240195 0)
(0.000810702 -0.000280086 4.33104e-13)
(0.00104987 -0.00032323 -3.61949e-13)
(0.00135744 -0.000368326 -1.32191e-13)
(0.00175014 -0.000413171 -8.52549e-13)
(0.00224671 -0.000454632 8.97316e-13)
(0.00286875 -0.000488277 0)
(0.00363996 -0.000507532 0)
(0.00457888 -0.000503267 0)
(0.00569929 -0.00046714 0)
(0.00700627 -0.000389504 -2.1935e-12)
(0.00848793 -0.000262811 2.01698e-12)
(0.0101051 -8.40422e-05 0)
(0.0117799 0.00013939 3.22918e-12)
(0.0133943 0.000387341 -1.41569e-11)
(0.0148041 0.000627009 4.93293e-12)
(0.0158705 0.000816309 1.07371e-11)
(0.0165239 0.000919175 -3.00373e-11)
(0.0167901 0.000922898 -1.32106e-11)
(0.0167683 0.000857465 -2.92025e-11)
(0.0166061 0.000738047 1.03497e-11)
(0.0163792 0.000642499 -5.03783e-11)
(2.57211e-06 -1.82159e-06 1.45353e-14)
(8.28097e-06 -5.81147e-06 0)
(1.52112e-05 -1.05734e-05 -3.03192e-14)
(2.36454e-05 -1.62458e-05 3.62718e-14)
(3.39327e-05 -2.2997e-05 4.33523e-14)
(4.65146e-05 -3.10199e-05 -5.18871e-14)
(6.19502e-05 -4.05357e-05 -1.21089e-16)
(8.09511e-05 -5.17965e-05 0)
(0.000104427 -6.50849e-05 0)
(0.000133545 -8.0713e-05 4.1054e-16)
(0.000169811 -9.90167e-05 -1.25902e-13)
(0.000215166 -0.000120345 -6.7817e-25)
(0.000272121 -0.000145043 1.75189e-13)
(0.000343917 -0.00017342 2.06382e-13)
(0.000434727 -0.000205708 -2.34408e-13)
(0.000549897 -0.000241998 1.76234e-14)
(0.000696225 -0.000282144 -3.4646e-13)
(0.000882259 -0.000325647 3.73486e-13)
(0.0011186 -0.000371491 0)
(0.00141814 -0.000417943 -1.17947e-13)
(0.00179619 -0.000462297 1.29433e-13)
(0.00227034 -0.00050054 8.36001e-13)
(0.00285872 -0.000527875 -1.76183e-12)
(0.0035887 -0.000538834 1.20945e-12)
(0.00447803 -0.000525497 0)
(0.00553794 -0.000475572 0)
(0.00678109 -0.000381661 1.14185e-12)
(0.00820187 -0.000235378 1.06815e-12)
(0.00976999 -3.31627e-05 1.95566e-12)
(0.011422 0.00021977 3.51335e-12)
(0.0130541 0.000504668 0)
(0.0145306 0.00078778 8.17486e-12)
(0.01571 0.00102643 -2.37994e-12)
(0.0164875 0.00117473 -8.3326e-12)
(0.0168585 0.00120882 1.09998e-11)
(0.0168996 0.00114468 -3.71156e-23)
(0.0167727 0.00102681 2.01635e-11)
(0.0165469 0.000865009 -5.11483e-12)
(0.0163124 0.0007471 4.07494e-11)
(4.00304e-06 -2.40971e-06 1.40984e-14)
(1.28528e-05 -7.68005e-06 0)
(2.35457e-05 -1.39579e-05 -2.94048e-14)
(3.64856e-05 -2.14204e-05 3.51956e-14)
(5.21669e-05 -3.02789e-05 4.21079e-14)
(7.12036e-05 -4.07728e-05 4.91697e-17)
(9.43602e-05 -5.31724e-05 -6.02806e-14)
(0.000122591 -6.77787e-05 0)
(0.000157094 -8.49204e-05 -3.34601e-16)
(0.000199374 -0.000104946 1.01215e-13)
(0.000251336 -0.000128213 -2.43497e-13)
(0.000315384 -0.000155059 -7.46799e-25)
(0.00039457 -0.000185777 1.67491e-13)
(0.000492753 -0.000220558 -2.03653e-13)
(0.000614815 -0.000259421 2.35213e-13)
(0.000766896 -0.000302117 2.82849e-13)
(0.00095667 -0.000347997 -2.97601e-13)
(0.00119363 -0.000395851 -3.63961e-13)
(0.00148935 -0.000443697 8.24964e-13)
(0.00185772 -0.000488482 -4.60928e-13)
(0.0023148 -0.000525606 1.26629e-13)
(0.00287812 -0.00055081 0)
(0.00356883 -0.000556888 0)
(0.00440617 -0.000535178 0)
(0.00540886 -0.000476948 -5.95793e-13)
(0.00658628 -0.000371259 1.16692e-12)
(0.00793891 -0.000209359 -1.11428e-12)
(0.00944586 1.28339e-05 -1.03876e-12)
(0.0110567 0.000291818 1.89512e-12)
(0.0126838 0.000611448 -8.48878e-12)
(0.0142034 0.000939154 3.00251e-12)
(0.0154765 0.00122931 7.90969e-12)
(0.0163844 0.00143472 -2.31349e-12)
(0.0168721 0.0015132 0)
(0.0169974 0.00146971 7.22224e-12)
(0.0169113 0.00134402 1.2844e-11)
(0.0167047 0.00117612 5.71776e-12)
(0.0164606 0.000982046 2.54089e-11)
(0.0162353 0.000848758 0)
(5.76787e-06 -2.8951e-06 6.00848e-29)
(1.84888e-05 -9.21945e-06 0)
(3.38147e-05 -1.67402e-05 0)
(5.22963e-05 -2.56636e-05 0)
(7.46031e-05 -3.6232e-05 0)
(0.000101556 -4.87168e-05 -4.77125e-17)
(0.000134163 -6.34193e-05 1.14028e-16)
(0.000173667 -8.06682e-05 0)
(0.000221601 -0.000100811 6.49471e-16)
(0.000279862 -0.000124201 3.86771e-16)
(0.000350809 -0.000151174 3.07545e-26)
(0.000437368 -0.000182014 -1.3967e-13)
(0.000543184 -0.000216899 -1.04323e-24)
(0.000672783 -0.000255834 3.89612e-13)
(0.000831786 -0.000298546 2.1348e-24)
(0.00102714 -0.000344355 -2.66744e-13)
(0.00126736 -0.000392017 -1.93097e-14)
(0.00156283 -0.000439535 3.54562e-13)
(0.00192599 -0.00048393 -3.51986e-13)
(0.00237164 -0.000520769 0)
(0.00291475 -0.000544903 -1.23796e-13)
(0.00357001 -0.000547349 -1.33579e-13)
(0.00436188 -0.000519302 0)
(0.00531105 -0.000455155 -1.45223e-12)
(0.00642513 -0.000341765 1.16625e-12)
(0.00770681 -0.000169451 0)
(0.00914396 6.73545e-05 1.08615e-12)
(0.0106987 0.000366885 -2.01953e-12)
(0.0122992 0.00071575 -4.09265e-23)
(0.0138373 0.00108449 1.6451e-12)
(0.0151804 0.00142677 -2.9133e-12)
(0.0162044 0.00169068 -5.13651e-12)
(0.0168283 0.00183014 0)
(0.0170489 0.00182186 -2.01157e-12)
(0.0170196 0.00170771 -5.37555e-12)
(0.0168394 0.00152051 0)
(0.0165996 0.00131286 -2.85364e-11)
(0.0163603 0.00109221 -2.02952e-11)
(0.0161494 0.000947496 1.34605e-11)
(7.89098e-06 -3.20823e-06 -6.63576e-15)
(2.52651e-05 -1.02079e-05 0)
(4.61541e-05 -1.85171e-05 -6.75895e-18)
(7.12815e-05 -2.83561e-05 0)
(0.000101522 -3.99799e-05 1.98234e-14)
(0.000137937 -5.36701e-05 -2.37047e-14)
(0.000181817 -6.97332e-05 5.53256e-17)
(0.000234733 -8.84936e-05 -3.38216e-14)
(0.000298601 -0.000110281 4.00247e-14)
(0.000375756 -0.000135408 -9.57256e-14)
(0.000469055 -0.000164139 1.15171e-13)
(0.000581992 -0.000196638 1.0594e-15)
(0.000718835 -0.000232902 2.50734e-15)
(0.000884795 -0.000272661 0)
(0.00108622 -0.000315257 -2.22177e-13)
(0.00133079 -0.000359479 -8.10545e-15)
(0.00162775 -0.000403373 3.10025e-13)
(0.00198808 -0.000444018 3.45303e-13)
(0.0024247 -0.000477144 -8.82351e-13)
(0.00295048 -0.000496989 4.39227e-13)
(0.00358216 -0.000496564 3.62844e-13)
(0.00434114 -0.000466891 -2.61251e-13)
(0.00523971 -0.000397561 5.5177e-13)
(0.00629203 -0.00027799 -8.52551e-13)
(0.00750373 -9.89841e-05 -1.43565e-23)
(0.00886755 0.000146809 0)
(0.0103559 0.000460252 -1.05853e-12)
(0.0119121 0.00083106 9.82375e-13)
(0.0134447 0.00123353 -5.36006e-12)
(0.014833 0.00162409 4.80223e-12)
(0.0159505 0.00194634 0)
(0.0167039 0.00215 5.04248e-12)
(0.0170478 0.0021946 -6.72434e-12)
(0.0170864 0.00210445 0)
(0.016945 0.00191833 -2.01385e-22)
(0.0167134 0.00167935 6.41331e-12)
(0.0164725 0.00144008 1.14557e-11)
(0.0162499 0.00119675 0)
(0.0160539 0.00104202 -1.80006e-11)
(1.03508e-05 -3.25515e-06 -6.4386e-15)
(3.31134e-05 -1.03466e-05 -2.73855e-18)
(6.04395e-05 -1.87461e-05 6.55824e-18)
(9.32505e-05 -2.86666e-05 0)
(0.000132654 -4.03496e-05 -1.92165e-14)
(0.000179983 -5.40566e-05 4.59812e-14)
(0.000236847 -7.00631e-05 -5.3687e-17)
(0.000305184 -8.86479e-05 -3.27572e-14)
(0.000387329 -0.000110074 3.89962e-14)
(0.0004861 -0.000134558 -4.70005e-14)
(0.000604892 -0.000162227 5.50303e-14)
(0.000747794 -0.000193055 -6.68528e-14)
(0.000919721 -0.000226773 7.79126e-14)
(0.00112656 -0.000262756 -9.19081e-14)
(0.00137536 -0.000299864 0)
(0.00167444 -0.000336257 0)
(0.0020336 -0.000369172 1.82794e-14)
(0.00246419 -0.00039468 2.10122e-14)
(0.00297905 -0.00040744 7.16555e-14)
(0.00359241 -0.000400415 -5.35574e-14)
(0.00431981 -0.000364827 5.90493e-13)