/*--------------------------------*- C++ -*----------------------------------*\
  =========                 |
  \\      /  F ield         | OpenFOAM: The Open Source CFD Toolbox
   \\    /   O peration     | Website:  https://openfoam.org
    \\  /    A nd           | Version:  13
     \\/     M anipulation  |
\*---------------------------------------------------------------------------*/
FoamFile
{
    format      ascii;
    class       surfaceScalarField;
    location    "0";
    object      hT;
}
// * * * * * * * * * * * * * * * * * * * * * * * * * * * * * * * * * * * * * //

dimensions      [1 0 -3 -1 0 0 0];

internalField   nonuniform List<scalar> 
10657
(
-1.5052113e-11
-1.4627936
8.0855273e-12
-2.1515503e-21
-7.4343429e-17
0
2.0244608e-20
-4.7169706e-17
4.0157577e-27
3.3788021e-21
-5.1526855e-17
0
2.5459086e-21
1.656698e-16
-1.6842953e-30
-1.1092994e-21
-1.3312424e-16
6.815282e-46
1.1274981e-21
1.0665357e-16
6.3437605e-28
-1.9012777e-22
-7.0559937e-17
0
1.7793761e-24
5.619403e-17
0
-3.348377e-23
-1.269015e-16
0
-3.3711471e-22
8.2431859e-17
-5.8916703e-28
-2.0156915e-23
-6.7966325e-19
0
-6.0662747e-24
-2.6959876e-17
9.9044129e-29
6.8084718e-24
2.051938e-17
0
-5.5157576e-26
-4.0503309e-19
0
9.6921996e-23
-3.120595e-32
-1.4971765e-47
-3.5781251e-24
2.3098713e-20
0
1.3902076e-23
7.1199258e-18
-6.8401199e-29
-3.4154948e-24
-1.1323194e-17
0
-3.5455287e-23
8.4133862e-18
0
2.3521151e-22
4.6261204e-19
6.6716599e-29
-2.3681468e-23
3.0532591e-18
0
3.2922426e-25
-4.8452451e-18
0
-9.6847131e-26
1.6494051e-33
3.1062652e-49
2.7430705e-26
-1.7694421e-18
1.100131e-29
2.9415183e-26
2.3620311e-18
3.2220523e-29
-1.7311301e-23
-4.4713233e-18
0
-2.9158128e-23
1.8693097e-18
-7.2089853e-30
2.3147736e-23
5.3722978e-19
0
3.9616347e-24
-2.7177271e-18
0
-3.9997316e-27
2.0815683e-18
0
-9.6667932e-26
-1.576298e-18
-1.0628405e-29
-3.133733e-25
1.3030974e-18
0
-3.2920766e-26
5.7564847e-20
0
-4.9587005e-27
-3.7984298e-19
3.424377e-48
-3.6383334e-24
-6.7690649e-19
-2.9764481e-34
2.0077314e-24
7.2327185e-19
1.7827389e-34
-1.4451594e-28
3.4125796e-19
1.8415682e-30
-1.2846815e-34
7.0212446e-20
-4.0943117e-48
-1.4372216e-12
-1.5075413
4.5187405e-21
-2.8087487e-16
-1.5622352e-20
-2.4480335e-16
-2.5588575e-21
1.9291334e-16
-1.6619061e-21
8.6825248e-17
1.7114496e-21
-1.4359237e-16
4.1573986e-21
1.7529734e-16
-3.8491994e-22
-4.8792251e-17
-2.7982246e-22
8.0998784e-17
1.1753107e-21
-1.3435039e-16
4.9676632e-23
2.9034478e-17
-1.4733517e-22
-7.1955644e-19
-2.788515e-22
-3.8645956e-17
3.5569005e-22
4.63578e-17
-1.3659002e-32
2.4329306e-17
9.2422955e-23
5.2448611e-33
4.614248e-23
-1.7169281e-17
0
1.3981199e-17
-5.5838705e-25
-1.0873706e-17
6.0833108e-23
5.4696201e-19
2.5294063e-23
-1.7924257e-18
-3.5856836e-23
5.6683966e-18
4.0695895e-33
-4.1281229e-18
1.6620056e-23
-3.7087283e-33
-2.8489713e-23
-1.2650838e-18
-1.2072111e-25
4.4337943e-18
4.7710532e-23
-1.8255254e-18
-5.4257316e-24
7.1278271e-19
1.155693e-23
-3.1728818e-34
2.3507858e-24
-7.9879025e-19
3.9548226e-25
-2.3295233e-19
-2.966502e-26
-1.0788756e-18
-1.7936296e-26
6.6902823e-19
1.7408625e-25
-9.8166412e-19
2.9255741e-26
1.7049787e-18
4.6275238e-25
-1.3797989e-18
2.0472959e-24
2.9874672e-20
-1.498618e-25
5.1392115e-19
3.5977206e-19
2.9202308e-17
1.0261588e-13
-1.5536827
-3.1703592e-21
-2.9706665e-16
-5.3106926e-21
-2.2876499e-16
-2.4541796e-22
2.0405265e-16
3.0804576e-21
2.9787236e-18
-3.2627697e-20
-4.9541676e-18
-3.3875335e-33
1.0998863e-16
9.8237763e-31
-9.1368728e-17
-1.3499544e-31
-7.4637229e-32
-2.4205984e-21
7.2644156e-32
6.3322929e-22
5.4059346e-17
-4.4204286e-33
-4.3117826e-17
1.604998e-32
3.562815e-17
8.0328812e-24
-2.9388479e-17
1.2012149e-23
2.5695762e-17
-7.2848379e-25
2.7287772e-32
5.3956362e-23
-1.6139669e-17
-2.4469946e-23
1.5110648e-17
-1.5925636e-23
-1.0722249e-17
1.8768565e-23
5.513125e-19
5.2596683e-23
7.4431044e-18
-6.1185515e-23
6.0708269e-18
-2.4126527e-23
-1.0416042e-17
1.018501e-25
1.8004662e-33
-5.0194245e-25
-7.4913214e-19
5.5114205e-25
9.0919161e-18
6.9400702e-25
-3.4185167e-18
6.2095176e-23
1.9771499e-18
-1.7930587e-25
-2.0056535e-18
1.8679227e-25
1.6115895e-18
1.3505287e-24
-6.4003118e-19
5.7885376e-25
-1.7481662e-18
-2.3466434e-33
1.0951292e-33
6.3110402e-25
-3.5643039e-33
1.5825515e-25
1.7578624e-18
-1.7472976e-24
-1.5009606e-18
2.1741358e-24
-2.3109257e-19
6.1335539e-25
4.1628894e-19
3.799791e-19
-4.8260504e-17
-2.3294817e-13
-1.6012349
4.3987269e-21
-2.1391374e-18
-1.3380831e-21
-2.4210406e-16
-1.7989141e-30
-1.4821845e-18
-1.348465e-30
-8.3330097e-32
1.2447493e-20
-2.0509226e-18
-2.6739471e-21
1.1285173e-16
-4.641228e-22
-1.8251307e-16
0
1.4683514e-16
-4.2680226e-22
-6.4330175e-17
-8.2629993e-23
5.6130243e-17
-1.1020565e-23
-2.654562e-18
3.4837289e-23
3.7529346e-17
1.131331e-22
-3.0957048e-17
2.5104575e-32
-2.2844207e-17
1.4734338e-22
-6.2149126e-33
6.1372428e-23
3.1947777e-18
3.4878957e-23
1.265076e-18
5.1131176e-25
-9.653911e-19
-1.4775998e-23
1.0383014e-17
-2.1134466e-24
-3.233832e-19
2.0030726e-23
-6.6994303e-20
1.7635335e-23
-7.9901068e-18
1.761711e-33
-3.0035617e-33
-1.7405308e-24
-6.2304905e-33
1.4491456e-24
3.5512068e-18
-1.2133778e-23
-4.448621e-18
2.0940408e-23
1.7063666e-18
2.1999712e-24
-1.2347697e-19
-7.4647163e-26
-1.50497e-18
-9.1130035e-26
5.9973535e-19
-4.3003931e-26
-2.4745423e-19
-1.4432781e-32
5.4036578e-34
-1.9165527e-25
9.1161418e-19
1.5128742e-26
3.5281687e-19
-2.2552822e-25
-7.6674013e-19
-1.8547745e-25
3.6825413e-19
1.2088795e-34
0
-6.9380896e-34
-2.6600329e-18
-6.4451437e-13
-1.6500407
-7.1901029e-23
2.4982041e-16
4.9192773e-23
1.3490032e-31
-7.5298348e-23
-1.8916392e-16
4.3905844e-23
2.3764004e-31
-1.4809639e-23
1.2764164e-16
-4.7359726e-22
-3.5484486e-18
-6.1024588e-23
-1.817502e-16
6.0405497e-21
2.2750033e-16
3.6346219e-21
-1.2737005e-16
2.0126452e-22
5.2772693e-17
-4.3339058e-22
-3.9667305e-17
0
3.4944719e-17
-1.1987997e-22
-3.2516967e-20
7.3507975e-23
-2.2199654e-17
-1.5402013e-22
1.9489598e-17
9.9874862e-23
-1.1923732e-17
-1.7759641e-23
1.3105491e-17
-1.4712097e-22
-1.3371076e-17
1.9529683e-24
-2.1484251e-18
2.6584879e-23
-3.5729466e-18
2.6007428e-23
2.8148412e-18
2.9833784e-24
-8.884129e-20
7.6739272e-33
8.6596154e-33
6.5146756e-25
1.4242121e-32
2.2507669e-24
-1.1482451e-18
2.3226519e-26
-6.7158951e-20
2.7945423e-24
1.2661329e-18
4.8446331e-25
1.0879373e-18
5.860304e-25
-9.2377905e-20
1.8077963e-23
-1.0657142e-32
-1.0802781e-23
5.068009e-20
3.7597106e-25
8.0761407e-33
3.6585703e-25
1.8589843e-18
-1.022366e-33
-1.3140631e-18
2.4982721e-33
7.2701155e-33
-1.4224608e-33
-1.1559562e-33
0
-2.4137753e-19
2.153592e-20
0
-2.0928845e-12
-1.7007734
-6.0158906e-20
2.6027426e-16
-1.430668e-20
-2.2222002e-16
1.1112469e-20
-1.9351679e-16
9.6145366e-22
1.5145527e-16
2.6960983e-21
7.9413045e-18
6.7205594e-22
1.0634362e-16
1.5827014e-22
-1.8508694e-16
6.8418944e-22
1.4941605e-16
-2.047069e-21
-1.2295526e-16
6.4672053e-22
1.0073708e-16
-3.8512455e-22
-8.8550175e-17
1.5026862e-23
-3.2307634e-17
3.5947576e-22
2.8807027e-17
-4.3691997e-23
3.6428034e-18
6.8788743e-23
2.0404217e-17
-8.4792703e-23
1.7284179e-17
5.7821285e-24
-2.4666468e-17
-2.7660497e-23
5.6128319e-18
4.3446402e-25
-1.0720118e-17
-3.2395951e-23
-8.6458675e-18
-2.4821199e-23
8.8957049e-18
-4.3587402e-23
2.7236144e-18
0
-1.7326839e-18
-9.5290138e-33
-1.3638931e-18
-2.5876e-24
-1.5034357e-32
-1.0318255e-24
-5.9211133e-19
2.8901547e-24
9.5325372e-20
-9.7824051e-24
-4.7635952e-20
1.1832504e-24
9.1053983e-20
1.0543399e-23
1.1009077e-18
5.9198024e-25
-2.6911937e-18
-6.127847e-26
1.2112639e-18
5.9206e-26
9.4379812e-19
-9.1751916e-26
-1.3756951e-18
4.4394586e-33
-4.6915793e-19
7.4408984e-25
1.327779e-32
2.61037e-24
-1.8172959e-20
2.7745237e-20
1.0337457e-16
-3.0692494e-13
-1.7528244
-3.3374829e-20
2.6313271e-16
2.5727141e-20
-2.3179217e-16
6.7199594e-21
1.8258984e-16
1.7760448e-22
-1.4424455e-16
1.1465312e-21
-1.1069623e-16
4.8493447e-22
1.9646113e-16
-1.2371676e-22
-9.214502e-17
-8.613057e-23
7.1845437e-17
1.3194784e-23
7.1145878e-18
2.4505995e-22
2.2372654e-17
4.1355366e-22
-2.6107854e-17
2.7163429e-23
-7.1862125e-17
6.5248427e-23
2.9639154e-17
3.0468664e-23
2.2312619e-17
1.0434707e-22
-1.8869155e-17
3.1687202e-23
3.2830768e-17
-2.7667542e-23
-3.5496001e-17
-3.0982175e-23
1.4541433e-17
3.9340949e-23
-5.8215022e-18
5.3150302e-23
-7.1265081e-18
3.42081e-23
3.8879135e-18
1.9735078e-23
3.2086921e-18
8.4533384e-24
-3.5092119e-18
5.3508382e-24
-1.4227163e-18
-1.8266389e-24
2.0934255e-18
1.3169382e-23
-4.9700063e-18
-1.2694956e-23
-1.9217061e-18
-1.7373648e-23
1.9370695e-18
2.9082133e-25
-1.5303204e-18
3.8789664e-26
2.2296766e-18
-8.1471396e-25
-1.7099791e-18
-1.6846632e-24
3.6428453e-18
1.8128071e-32
-8.7280048e-19
-2.9226894e-25
-6.3610566e-19
-1.4647612e-26
-4.8939243e-19
8.9159497e-26
4.8117247e-19
3.0378438e-24
3.6635623e-19
-3.3973248e-19
-9.082045e-18
-2.0254092e-13
-1.8063967
4.4056323e-21
3.8185347e-16
1.0362863e-20
-4.606923e-17
2.248795e-21
3.6386524e-16
9.0363241e-21
-4.6181609e-16
6.5629894e-22
3.115569e-17
2.0092529e-22
1.0716003e-16
-4.9206021e-24
6.9016078e-17
1.3474775e-24
-2.3381422e-18
-7.1536091e-22
1.6873622e-17
1.1474222e-22
-3.2926866e-17
1.8729096e-22
-2.6877571e-17
-5.7086603e-31
-2.8168979e-33
8.0381214e-23
-2.9142172e-18
1.2147062e-23
2.5682959e-17
1.5948813e-22
-1.9603828e-17
-2.3589963e-23
-3.3323347e-33
3.2663762e-23
5.4352994e-18
-1.5050044e-23
-2.6669226e-18
-3.6554756e-23
3.6909734e-18
4.0061022e-23
1.7849943e-33
2.9688714e-23
-4.7765262e-18
-7.0861177e-25
1.1131427e-19
-2.5809431e-24
-1.7680287e-18
-6.2133085e-25
7.4797207e-18
2.5412237e-24
1.270835e-19
1.1409612e-23
-1.7847951e-18
2.7171271e-24
6.0382291e-35
-1.2630412e-23
-1.7323858e-19
-3.5545897e-25
7.3105456e-33
4.2776972e-25
1.1233681e-18
-1.2927512e-24
-1.5749782e-18
3.5415109e-24
3.635701e-18
3.0045737e-25
-9.0677402e-19
3.7561449e-25
-7.5170419e-19
-1.3098361e-25
2.1913087e-33
2.4181757e-24
3.4421327e-20
-2.4625443e-25
-2.9982417e-33
-3.5295559e-19
-1.3020702e-16
2.1967887e-13
-1.8616088
1.5644687e-20
3.7992082e-18
1.4063503e-20
-3.2265126e-18
9.9495759e-22
1.8644426e-16
3.5429789e-21
-1.5287854e-16
-1.9404266e-21
3.9487054e-18
2.1588146e-24
2.3146419e-17
-1.1476147e-21
8.9227671e-17
1.2339029e-22
4.653513e-31
-4.2172383e-22
-4.6287454e-17
1.5216705e-23
-1.1711635e-17
-9.765249e-24
7.1022083e-18
-9.9454695e-24
3.2226637e-17
4.9208329e-24
-3.6696145e-17
4.3863566e-23
3.0395885e-18
-1.0937803e-31
-4.4661302e-18
4.1416305e-23
-2.3490583e-32
-2.5110219e-23
6.1778948e-18
2.2636552e-32
7.3944883e-32
2.4948201e-35
0
0
1.9905925e-32
1.2873809e-23
2.5484149e-18
1.6148836e-23
-2.1589188e-18
-1.1450547e-23
-2.529329e-32
-1.7995729e-23
8.1147127e-18
-2.6993103e-24
-2.1178484e-18
2.7085811e-24
3.1786941e-18
-8.2148762e-25
5.7460583e-36
-8.8260599e-26
-1.9267636e-18
-3.5011869e-33
1.7069021e-32
-1.381514e-24
1.1784712e-33
-9.531401e-25
-1.6288518e-18
-1.4380291e-24
3.4631252e-18
3.7785488e-24
-8.3140115e-19
-7.8993754e-26
-3.9249665e-21
-8.2502319e-26
2.403569e-33
2.917758e-24
-6.6759257e-19
-2.4941872e-34
4.533928e-19
-6.4723338e-19
1.1808851e-16
2.3391318e-13
-1.9186626
1.9949588e-20
-2.2446353e-16
8.9113276e-21
-1.3646755e-16
-3.5850714e-22
3.1897617e-18
1.8424165e-32
-2.2304228e-30
-7.207959e-23
1.4921293e-16
9.361871e-22
-3.1989918e-18
1.6876734e-22
2.4377482e-17
-1.4602315e-23
-6.6458677e-17
-4.0529998e-23
1.6781029e-17
1.3868837e-23
-1.3902952e-17
4.8064808e-23
1.1504225e-17
7.0272695e-23
3.3157616e-17
3.2871728e-24
-3.5191896e-17
2.2338619e-23
-2.8145588e-18
-5.7348073e-24
-5.301689e-18
4.248547e-24
-3.5704068e-32
5.1440736e-24
3.0922415e-18
0
-9.4756316e-18
-1.4931823e-32
1.2079847e-17
9.4741664e-24
-6.6465027e-18
-2.7581062e-24
5.8736521e-18
-4.3592816e-33
2.5556625e-32
-2.16375e-32
3.2451127e-33
1.8120791e-32
-5.3074817e-18
1.420099e-23
1.9318349e-18
6.9540728e-24
6.5373697e-18
-2.8540981e-32
-4.6079691e-18
-2.4230432e-33
-1.9768874e-32
-1.2930738e-32
1.5247855e-18
7.2385686e-33
1.1371285e-32
6.6873491e-24
2.5123723e-32
2.3812988e-24
1.2440864e-18
1.3415665e-24
-8.5541367e-19
-2.7336924e-33
-1.4402486e-33
2.9569267e-34
-3.7779868e-33
-3.1603946e-25
6.1269381e-19
-5.4997486e-27
4.6648831e-19
-9.7943963e-19
-9.1993349e-17
-3.6419641e-13
-1.9772366
-6.282891e-21
-3.182415e-16
-1.4345514e-20
-2.0176489e-16
-4.0114382e-29
-1.1123392e-16
1.7359068e-21
2.2263932e-16
-1.3215809e-21
4.5941308e-17
1.283072e-30
-8.5798132e-31
-2.6815722e-22
-5.0720978e-17
3.788771e-22
-2.5875065e-17
-2.7121566e-30
-3.3176493e-18
4.7021344e-35
1.3777401e-31
0
9.8551486e-32
-2.253316e-31
0
1.6252379e-31
2.1701998e-17
4.2040378e-31
-2.0418368e-17
-1.206088e-31
0
2.6020962e-32
9.0354813e-18
1.6079953e-23
-1.7696619e-18
-1.3881371e-23
-9.6920377e-18
-1.0953623e-24
9.3215443e-18
-4.2537331e-25
2.5534225e-18
-2.3545733e-23
-1.4421517e-18
8.2367096e-32
2.3042532e-32
-2.5637334e-24
-5.0146916e-18
6.4418428e-24
-3.4745302e-18
5.5236006e-25
1.9759575e-18
7.9943627e-25
7.9645337e-18
-1.0671733e-24
-4.7132149e-18
-8.9001002e-24
3.385313e-18
1.3954739e-23
1.7892164e-18
2.1027221e-32
4.8583033e-33
1.2510637e-24
-1.4309442e-18
-1.1858052e-24
9.7102229e-19
-1.7475051e-34
0
1.9678771e-35
7.437327e-19
-5.8129379e-26
-8.1906506e-19
1.2355902e-25
3.6611212e-20
7.885754e-26
1.4701566e-33
-3.206723e-19
3.1322676e-17
-1.1700535e-13
-2.0376887
-7.9357365e-20
-2.4019838e-16
-1.5708925e-20
4.3615201e-18
-2.9204828e-21
-1.2331426e-17
1.2547023e-21
2.3907366e-16
-1.4349944e-21
-1.9383067e-16
-1.364668e-21
6.6794624e-17
8.3628198e-22
-1.1441068e-16
1.0303021e-21
4.8911403e-17
1.8504059e-23
-4.1564953e-17
-1.6444363e-30
7.371077e-17
1.5349884e-32
-3.4809545e-17
5.7898249e-23
2.7043813e-18
1.149128e-23
4.577322e-17
5.2453889e-23
-2.1910632e-17
-3.1060566e-23
-1.2066741e-17
1.9631781e-25
7.2121836e-18
-1.2184112e-23
2.490857e-18
-4.4246617e-24
-2.1631622e-18
1.1351337e-23
2.2784414e-17
1.1553084e-23
1.3493407e-17
-1.0687423e-23
2.0246471e-18
1.528028e-24
2.7461166e-18
2.7273886e-24
-2.4911422e-18
3.227994e-24
2.4190234e-18
8.2249656e-24
7.9831961e-33
4.0041006e-24
5.6907651e-18
9.3451681e-24
-2.1225899e-18
-1.4205417e-23
1.8200698e-18
-5.0890867e-33
-7.2725942e-33
4.233525e-24
0
-9.2589402e-25
1.2838931e-18
6.9340862e-25
1.1685612e-18
3.4073213e-24
0
-2.483749e-24
-1.031116e-18
2.5161123e-25
-8.3210974e-19
-1.2456746e-25
-5.9947585e-19
2.9048768e-33
6.0876321e-19
-5.7765696e-19
4.1195797e-33
-3.9628887e-13
-2.0999997
1.2903429e-21
-2.0502836e-19
-1.5064619e-20
9.7516475e-18
1.2274864e-20
1.337644e-16
7.4051246e-21
3.2805203e-30
-3.0740703e-21
-9.254639e-17
-9.6981279e-22
2.3361995e-16
-1.7248405e-21
-1.903014e-16
6.4893077e-22
-3.3973232e-31
4.8658053e-22
-8.5400223e-17
5.4686696e-22
1.1743966e-16
-1.5180613e-22
-6.3477343e-17
5.594427e-23
2.6573648e-17
3.8836437e-23
4.3264708e-17
1.5350905e-23
-1.9102904e-17
2.4238456e-23
-1.0624809e-17
-1.4347575e-24
-6.3173067e-19
5.9885181e-24
1.5590156e-17
1.7681856e-25
-8.3571191e-18
9.6815536e-24
2.0330388e-17
9.3151615e-23
1.4260654e-18
1.4166877e-23
7.9291516e-18
-3.35162e-24
3.1623903e-18
-6.2856451e-24
2.9165529e-18
0
-8.1153071e-34
-4.2536203e-24
3.3781427e-18
-3.5664535e-25
2.4134258e-18
1.1675027e-23
-2.139425e-18
-3.5393303e-24
-1.6320039e-18
-2.7000491e-33
-1.5490856e-32
1.2082386e-24
-6.3742838e-34
-2.5430146e-24
3.8757695e-18
1.701423e-24
-1.7522158e-18
2.8794857e-25
-1.2070883e-32
-4.6846888e-26
-3.7914034e-18
-2.1205403e-33
-6.3904294e-19
3.4079714e-25
1.0970146e-33
1.028121e-24
-6.7039669e-20
-1.110871e-19
8.9104467e-17
-2.7498684e-13
-2.16417
-2.5590708e-23
6.3558569e-18
-4.4688446e-22
3.3377997e-16
-1.1493232e-29
-2.7760221e-16
-3.9967598e-29
1.1623985e-16
-1.8227827e-22
9.8266107e-17
3.7016938e-23
9.7478119e-18
2.0376835e-23
-7.373608e-17
-2.5616353e-22
-5.0362143e-17
-7.0962043e-23
-2.7633803e-18
-1.542195e-22
2.4968851e-18
-2.9871781e-23
-1.8944289e-18
7.1869102e-23
2.9955399e-17
-1.6511764e-23
1.2912068e-18
-8.5890495e-24
-2.2827407e-17
-1.3911829e-23
1.8052154e-17
-6.2604188e-24
-5.7824053e-18
2.0238992e-23
1.0168386e-17
-2.9433828e-25
-3.4437897e-19
-7.7364553e-24
-1.6121621e-17
-2.144489e-25
1.2483173e-17
5.8700115e-35
2.6664354e-33
3.328691e-32
-3.2578037e-18
-6.7088573e-32
-2.5388069e-18
1.4612297e-23
-1.9984306e-18
-2.7685462e-24
3.3733413e-18
-3.59944e-24
-4.3885501e-20
1.6954216e-32
1.8623237e-18
4.3955933e-33
1.4206268e-18
1.1421649e-32
9.786256e-33
1.4710634e-24
-2.4987249e-32
-2.9108264e-24
1.2754659e-18
-5.3089981e-33
8.8739957e-19
-1.904322e-24
-2.0896745e-33
-2.9094123e-24
-1.0153137e-19
6.8780598e-25
6.3305989e-19
-4.5171161e-25
1.5812377e-34
1.363454e-24
-4.4796274e-20
4.0086856e-20
1.1342782e-16
2.4246557e-14
-2.2305206
-1.9635467e-21
2.1554858e-16
-3.4133299e-23
1.5519319e-17
2.6272785e-21
-1.4478344e-16
-2.24008e-21
1.1460079e-17
3.9350095e-21
9.7465928e-17
3.2688461e-21
-9.2927264e-17
-8.9970234e-23
8.1303067e-18
1.4181285e-22
-6.3128782e-18
1.3586504e-23
8.393292e-18
-5.0797568e-23
-4.6491756e-17
-1.5108618e-22
6.351914e-17
1.6140619e-23
6.9458387e-18
-7.7930847e-23
-2.8528924e-17
1.1733118e-24
-1.6206179e-17
3.1064554e-25
3.120386e-17
-2.6781351e-23
-1.9212921e-17
-5.3334631e-24
8.9025363e-18
7.4877753e-24
-3.1723515e-18
-2.6321881e-25
-1.8958004e-17
1.7299171e-24
2.786904e-17
6.2672453e-24
-3.7975496e-18
2.1883608e-24
-1.8787594e-19
3.0488504e-24
1.4201135e-19
-7.0183548e-25
-1.3235737e-19
0
-2.9533969e-18
8.1540709e-24
-2.2898813e-18
-8.2497487e-25
3.5085776e-19
-3.404917e-24
1.6111086e-18
-1.1489003e-32
0
-2.4398178e-35
4.6031775e-35
2.5207962e-24
4.0360054e-32
2.0307193e-24
1.9539968e-18
8.5067591e-26
3.7228318e-33
1.2060966e-24
1.0159357e-18
5.9228045e-24
1.6484001e-18
4.4293218e-25
1.772918e-32
4.8792674e-24
7.131533e-19
-4.0089144e-19
-1.8534613e-16
-3.9227368e-13
-2.2987323
-1.1317856e-19
4.1195199e-16
4.3556445e-20
-4.9163682e-16
-1.9832634e-21
1.6437581e-16
9.5232942e-21
-1.355637e-16
-6.8633722e-21
-9.9976893e-31
7.6432524e-22
1.627584e-16
2.3672092e-23
-1.3641677e-16
-1.1648197e-22
1.5691353e-16
-4.7110783e-22
-1.3496607e-16
-6.1598613e-23
-4.0018813e-18
-8.5289006e-23
2.482304e-17
-4.2980744e-23
2.9255742e-17
8.8281815e-23
-4.6423686e-17
-4.0064884e-24
-1.5786357e-17
6.1422704e-24
4.9890633e-18
9.0224748e-24
-6.2016778e-19
-4.5002935e-26
8.671981e-18
2.6875606e-23
-7.2616059e-18
8.5794416e-25
-8.5754088e-18
-9.6440666e-25
1.2231294e-17
2.4646557e-24
-1.425412e-18
-5.6511714e-24
1.0205558e-17
-6.9784915e-24
-1.3091973e-18
-1.3764682e-23
2.4034865e-18
1.1082889e-23
3.3687072e-18
-1.9840072e-24
-1.3025313e-19
4.9828963e-26
-4.9463057e-18
0
1.6088048e-18
0
1.2171555e-18
2.5187215e-32
3.2259845e-18
-2.0898144e-24
-2.7201027e-18
-2.8356126e-25
2.0722071e-18
4.3263693e-26
9.2336938e-35
2.6651543e-26
-1.1413138e-18
1.7712599e-32
7.7848813e-19
-7.9174841e-33
-2.0801433e-33
4.3146148e-28
0
-2.0617912e-19
-2.3204893e-16
-1.609533e-12
-2.369118
-1.8135627e-20
-3.0030009e-16
-1.013928e-20
-2.6255624e-16
-2.6799082e-22
9.9135592e-17
-2.4979811e-29
1.9726785e-30
-3.4753465e-21
7.3315727e-17
-1.2392937e-22
1.0089509e-16
-3.5375055e-22
-1.359779e-16
3.7915354e-24
1.1268152e-16
6.6082934e-22
-9.8077975e-17
-1.9131275e-22
-3.8321893e-18
-2.4464791e-22
1.7730166e-17
-5.4246734e-24
5.2206779e-18
-2.7692862e-23
-5.9946372e-17
7.5027845e-25
1.2608027e-17
8.4411579e-24
-1.1690904e-17
9.9512186e-24
2.2031864e-17
7.8491316e-25
-4.5549824e-18
-1.9712657e-23
1.8572941e-19
-7.8683325e-33
2.4269507e-18
-1.4863219e-24
3.9146283e-18
6.7497411e-24
-3.7374988e-18
1.5979142e-23
5.6116935e-18
9.8339146e-25
7.3231583e-19
8.9358809e-25
2.3842161e-18
-9.2315366e-24
8.4140097e-18
1.0702039e-24
3.0062705e-18
-1.6387837e-23
2.0412058e-18
-2.5012548e-24
-1.5897787e-18
4.8052874e-25
1.3617923e-18
-1.5180051e-24
2.7849513e-18
6.6225807e-25
-5.90897e-18
3.9507931e-26
1.1243596e-18
0
7.7672369e-19
-1.3406806e-25
1.52875e-32
-4.5989896e-25
5.0855872e-20
4.1762614e-33
1.2620324e-32
6.0033707e-25
4.2357578e-19
-2.2278065e-19
1.5792747e-16
-1.7650023e-12
-2.4414786
2.4811567e-20
-5.1868148e-16
-5.466409e-21
-1.1926524e-16
-1.8338065e-22
9.3237794e-17
4.4355345e-22
-2.9670131e-30
-3.1091818e-21
6.4628537e-17
-2.9986927e-21
-3.6975411e-18
1.9220828e-21
-4.7412218e-17
1.0424607e-30
2.4777436e-33
-4.0930668e-31
-3.9983561e-31
-2.6677047e-22
2.8807634e-18
1.2648021e-22
2.1961379e-17
5.3885573e-22
-1.8487639e-17
1.5207243e-23
-1.5250084e-17
2.8915054e-23
1.2256744e-17
5.5858206e-25
3.2171698e-33
-7.6938844e-25
1.2268521e-17
7.6488848e-23
-8.36432e-19
1.4181242e-24
7.5109675e-18
1.6829592e-23
-2.0078222e-18
-6.732775e-24
3.6667703e-18
1.7926653e-23
-3.3764099e-18
2.0029569e-24
-1.3699959e-19
-1.2594367e-23
6.7339739e-18
-1.3447615e-24
2.6503345e-18
1.0825017e-23
-1.8291027e-18
-7.3109657e-24
1.3849395e-17
-8.7266132e-24
5.4723127e-19
-1.9390881e-24
-3.7680993e-18
1.1232349e-23
1.6747511e-33
2.3739037e-24
7.8300408e-19
5.8667057e-25
-4.6852496e-18
-9.0825855e-28
1.1081713e-18
4.7036968e-25
8.6341879e-19
-1.3498997e-25
-4.9826461e-35
1.2061608e-26
-3.5770109e-18
8.2642366e-26
6.1845497e-19
-1.7068842e-26
2.7489213e-20
1.80111e-18
6.1503604e-17
-7.1003199e-14
-2.5162119
0
1.9842366e-18
-3.1648715e-23
4.2287071e-16
-4.3833025e-22
-3.5708152e-16
5.1857431e-22
-3.3285324e-17
-7.5666596e-22
2.4005312e-17
4.6791757e-22
1.7344263e-16
1.2503889e-31
-1.1077367e-16
-1.7328446e-31
-1.5862703e-17
6.6692992e-24
-8.9023012e-32
-4.3499682e-24
8.8155678e-17
7.0637407e-24
2.6328182e-18
-9.2213328e-32
2.048464e-18
4.147854e-34
-3.0734564e-18
-1.598006e-31
-4.4513446e-17
3.0443513e-31
2.2850434e-18
1.4274886e-23
2.9946248e-17
6.2717962e-23
-2.398676e-17
-2.6492559e-23
1.0071955e-17
-1.2239804e-23
-5.542532e-18
3.9243171e-26
6.4947883e-34
3.6186466e-25
3.9777507e-19
1.3362097e-23
1.2220976e-17
4.5419153e-35
2.8284676e-32
-5.3006558e-24
6.4887496e-18
-2.2395684e-24
-2.5145262e-19
-4.3990606e-24
1.3056706e-17
1.0726403e-24
-5.1373608e-18
-2.8419318e-34
-9.5863229e-33
-5.4409576e-25
4.1877179e-18
2.9129035e-25
-3.077624e-18
-1.0074981e-24
-9.6696913e-20
8.6968036e-25
-1.0810779e-18
-3.5102986e-33
9.2211312e-19
-7.1583825e-25
-2.4649826e-18
1.161715e-24
-1.9466652e-18
5.9096983e-26
-6.0333425e-19
4.9299426e-28
-4.8969622e-19
1.7159971e-18
-1.3932239e-16
-1.6934412e-13
-2.5932814
-7.9703671e-20
2.1773701e-18
1.1892021e-20
4.6404477e-16
-9.1261695e-21
8.1047331e-18
-3.6161646e-21
-3.5886084e-16
5.4031042e-21
2.4118318e-17
2.0677545e-21
2.0189118e-16
-6.8673272e-21
-1.3451802e-16
3.2472953e-22
-1.3821504e-17
-5.5739926e-22
-1.0793629e-17
1.9827876e-22
9.3475988e-17
2.0356661e-24
7.3994328e-18
-8.3936117e-23
2.2479307e-18
3.5946109e-24
-2.6779224e-18
1.4862265e-22
-4.3258705e-17
2.8927722e-22
3.6875845e-17
-2.4388926e-22
7.5044867e-18
1.2261764e-23
-8.5497802e-18
-5.7142742e-23
-1.6088332e-17
-3.1080469e-23
1.8682318e-17
-1.6523345e-23
-1.6605453e-17
-6.2783185e-24
-2.8152076e-18
-9.0518098e-25
1.077872e-17
-9.7777494e-26
6.8143816e-18
-1.0593014e-23
-5.5440419e-18
-3.5631491e-24
5.4988571e-18
3.0160824e-33
-1.1732843e-18
-1.9712939e-32
3.0788412e-32
1.9822964e-24
6.5801312e-33
-1.9566644e-25
4.5954827e-18
-8.0121672e-25
-4.5980867e-18
2.3233191e-25
3.323424e-18
2.7235783e-25
-1.6030838e-18
-2.5340776e-26
1.1857352e-18
-3.8518829e-24
-2.7050004e-18
2.7583458e-24
7.0748498e-19
-1.8529473e-26
-2.5562609e-18
2.6962e-33
-1.6015185e-33
-6.1395816e-20
-3.1191431e-33
-3.5797835e-13
-2.6727707
9.4706858e-33
-2.6939221e-16
8.5101427e-22
4.4852843e-16
-3.1533386e-22
4.9898265e-17
1.2896497e-22
-3.5208132e-16
-2.0991991e-23
-2.1793223e-18
-1.3795551e-22
2.1658745e-16
0
-1.783069e-16
-4.9295973e-22
1.4916408e-16
2.3550828e-21
-1.3361777e-16
2.6835753e-22
-1.8226518e-18
2.9262829e-22
6.0327112e-18
-3.7046194e-31
-4.6937817e-18
-1.1227421e-22
3.8717876e-18
8.0231882e-23
-1.7062128e-17
-9.858054e-24
5.2556802e-17
-1.1719694e-22
-2.4889752e-17
-4.78065e-24
2.2074674e-17
8.3716623e-23
1.7179246e-18
2.2553454e-24
3.5114039e-18
-7.0292138e-24
-2.1167694e-18
-5.0389827e-24
-1.2415001e-17
-5.8612454e-25
1.1031649e-18
2.4589136e-24
1.4423392e-17
3.0820509e-24
-1.1098557e-17
-1.3265398e-24
-7.4623747e-18
-7.1821851e-24
3.2798812e-18
-2.1659642e-32
5.1310934e-18
-2.9546488e-33
-1.95706e-18
1.1273126e-33
-1.4806365e-18
-4.8505905e-25
4.9999795e-18
3.7197634e-25
-3.1107825e-19
9.8114326e-25
-1.1987315e-18
0
2.2781211e-18
-6.8664009e-35
-6.5365044e-19
1.4849835e-25
-5.6647111e-34
-4.9018142e-25
-1.7980814e-18
1.8475893e-25
4.6029417e-35
6.4815017e-19
2.7939158e-16
-4.3573727e-13
-2.754585
7.756075e-21
-8.5327914e-16
-1.1996639e-20
1.1714847e-15
-1.6239412e-20
-7.8469932e-16
-5.2894171e-23
7.8530365e-17
-2.101906e-21
1.3600595e-16
-6.2979875e-22
6.2956426e-17
-2.3579887e-21
-1.4688715e-16
-3.5760894e-21
1.6148642e-16
-1.3674452e-22
-9.8869498e-17
2.616419e-33
-2.8613828e-17
1.1429637e-21
-2.1445792e-17
-2.5878356e-22
4.9766852e-17
-5.5155733e-23
2.0053775e-17
-1.2442768e-22
-1.2372236e-17
1.6594625e-22
-2.2328423e-17
2.744096e-23
1.9292657e-17
2.7708347e-23
-2.8900132e-17
3.3250975e-24
2.1578097e-17
1.4819085e-24
-9.2510652e-18
3.9485923e-24
2.1623971e-17
-9.5623261e-24
-1.6912702e-17
4.2670207e-24
3.8285967e-19
-1.6261941e-24
1.1138291e-17
-1.6209267e-23
-9.8619514e-19
6.9754863e-25
-1.3944346e-17
-2.0766637e-24
-2.5384346e-18
-3.9348118e-25
1.4709018e-17
-1.3922241e-25
-9.1016581e-18
5.1391239e-25
-1.6029618e-18
8.0103734e-25
5.4130585e-18
-4.8057056e-25
-3.1746591e-19
1.1086438e-24
9.1827884e-19
-1.8772824e-24
9.2076602e-19
2.1683453e-25
-7.0765353e-19
-1.8143404e-25
6.1713156e-19
-9.29675e-26
-1.0863758e-18
-1.0677293e-26
-4.4338082e-19
1.4676719e-18
-2.5720247e-17
7.543838e-14
-2.8387322
4.3454727e-20
-5.9701869e-16
-7.2956251e-20
7.3717485e-16
-6.4017114e-20
-4.0954232e-16
6.5182038e-22
8.440534e-17
1.5339333e-21
4.1116072e-16
9.5334396e-22
-1.7818619e-16
-1.3050753e-21
4.9604627e-17
-7.5773243e-21
-3.5157251e-32
1.8331944e-21
3.5912616e-17
1.4942919e-21
-2.8286325e-17
-3.3224902e-22
-2.3049349e-17
-3.6161768e-22
-1.4600547e-17
4.0793731e-22
7.5638659e-17
-4.9706996e-25
1.2933053e-17
6.7596316e-24
-4.2489004e-17
-9.3426978e-24
-1.5370992e-17
7.4024583e-24
-2.8455826e-17
-6.0176493e-24
2.2433653e-17
-1.2135563e-23
-7.6887676e-18
1.2208893e-23
7.5146967e-18
-1.1455371e-24
-1.6718622e-17
-1.4511481e-23
8.0137286e-19
-2.836219e-25
1.8265905e-17
-8.3222011e-24
-1.4893993e-17
5.9605066e-24
-4.149607e-18
-5.8523613e-26
-7.3096137e-18
3.4438826e-25
9.8383767e-18
-1.8465446e-24
-7.504952e-18
4.8756913e-35
-2.7749239e-19
-5.6346004e-24
-6.8048462e-35
1.5193085e-24
2.6998851e-18
1.7573989e-24
6.1144281e-18
9.15417e-26
-3.324681e-18
1.7935631e-24
3.3448657e-33
1.0961899e-25
2.0036636e-18
8.0309936e-25
-3.7375734e-19
3.9206002e-25
-6.6417816e-19
7.6499582e-19
-1.8248846e-17
-4.223636e-12
-8.0217029
-9.7795741e-30
-1.0663266e-34
2.1732363e-20
5.9273619e-16
-1.7836839e-20
-4.9138786e-16
1.7990139e-21
-1.5969223e-18
6.2683199e-21
7.9841472e-16
2.1705154e-21
2.8036099e-16
6.5024372e-32
-4.7126942e-16
9.9392225e-31
1.9330591e-16
-1.1280529e-21
-1.6157703e-16
3.7520295e-22
1.3386309e-16
2.7424984e-23
-1.7307442e-18
-2.0863487e-22
-3.3327762e-17
2.4433144e-22
2.631175e-17
2.6662681e-32
6.2152112e-17
1.0527129e-23
-5.1047189e-17
-6.1484399e-23
-1.4001173e-16
1.551923e-22
6.8284533e-17
-6.0550388e-23
6.5238043e-17
2.2385099e-23
-5.2860365e-17
-1.3147533e-24
0
1.4870272e-23
-3.4203825e-17
-1.7868467e-23
-3.4851506e-17
1.166608e-23
5.1305972e-17
1.7427955e-24
-1.9547856e-17
-7.800233e-24
-1.2742491e-17
-1.5850997e-33
1.3172859e-17
0
-3.3771511e-18
-4.789604e-24
-2.5761744e-18
6.2647696e-24
-4.872581e-18
-5.2517039e-24
5.2339881e-34
1.7611182e-25
-5.4446293e-19
-3.7255223e-26
7.5585214e-18
1.3436153e-25
-5.5453139e-18
1.1555274e-24
2.5812965e-18
1.8893485e-24
1.6810466e-18
-4.0171014e-26
-8.9808005e-19
-6.4028815e-25
1.2876496e-18
-1.3966123e-34
-2.1765636e-17
-6.3317724e-12
7.4156483e-06
-9.9517892e-20
-1.0146496e-23
1.1516376e-20
8.1277227e-22
1.9745752e-20
1.7476512e-21
-2.6113464e-24
2.5441943e-21
-8.8242305e-21
-5.5941498e-22
1.2740211e-20
1.4947665e-22
-2.2115733e-21
8.5522351e-22
-2.9287563e-23
8.6577376e-22
3.0727506e-24
-2.6647219e-22
3.0293892e-22
-4.2920601e-22
-2.9392014e-22
-3.0425455e-24
6.3011094e-23
3.8718011e-22
-3.9630774e-22
3.6346438e-22
8.2926181e-23
-4.4574824e-23
-1.0359063e-24
2.8014567e-23
4.6219967e-23
1.3663365e-24
-3.3893006e-23
4.9822522e-23
-2.3852182e-23
1.264178e-23
0
4.1939505e-23
0
4.9428875e-33
2.1361155e-23
-1.0745816e-23
5.7937685e-24
-1.099556e-23
-1.5473809e-24
3.1552896e-25
-4.0886574e-24
6.5799149e-24
-7.2875564e-26
-1.0079814e-24
6.0624919e-25
4.7477075e-24
1.702984e-25
-5.4731059e-26
-6.2752037e-24
-5.2583531e-24
5.2954646e-24
3.4584281e-25
-1.4894204e-26
8.1278349e-34
-4.3209773e-27
2.5387785e-25
5.9442964e-34
1.2420274e-25
-6.9631739e-27
1.1922291e-24
-2.0711442e-26
5.1005712e-25
-9.5549784e-25
-1.6907041e-25
1.4887088e-25
-3.0760089e-25
2.8308257e-27
2.4291569e-26
6.4975997e-26
0
-3.403488e-13
4.725713e-05
2.1117588e-20
3.7117029e-22
2.0084953e-20
4.3726471e-21
-2.2713483e-20
2.9533603e-21
4.2300009e-21
-5.8430563e-21
1.205047e-21
-2.2803575e-21
-1.5653486e-21
-5.0591573e-24
3.3620031e-21
4.3301511e-24
8.2395356e-22
-7.5836905e-23
3.3051276e-22
7.6564103e-22
-7.1716294e-22
-1.741147e-22
4.7329447e-23
6.5376122e-33
1.7396175e-22
2.6760794e-22
1.6156293e-22
-3.5455664e-22
-1.080709e-22
3.2154826e-22
-1.2486222e-22
2.1753734e-22
-2.7943981e-24
-4.2450419e-23
1.1287715e-23
-4.6182088e-23
1.9389775e-23
3.6668712e-23
2.0312789e-24
6.2872506e-23
1.9485254e-24
7.4684373e-36
6.9509146e-26
3.5906027e-24
3.1193557e-26
-2.6943091e-24
2.9008239e-24
-9.3147366e-24
-1.3886923e-25
-1.5747709e-24
-7.687491e-26
1.0504738e-24
2.5323015e-24
-1.4116385e-24
2.2824562e-26
0
-7.2955055e-25
-1.5603769e-33
6.5047364e-25
-8.5602605e-26
6.6391246e-26
7.8555733e-25
-1.6929956e-25
-3.6961943e-25
-9.0724794e-25
-6.0982371e-25
2.0762793e-24
-2.7071103e-25
-1.0581858e-24
-2.398748e-25
-6.85405e-25
6.3007785e-25
1.7312259e-24
4.2661447e-26
4.5504734e-25
-8.296188e-26
2.8876517e-26
1.9263822e-26
2.3073373e-14
-0.00011390931
-2.8393305e-20
2.9912391e-21
6.4553829e-20
1.5346489e-20
1.9340059e-20
8.6805446e-24
1.3916127e-23
2.9122193e-21
-3.0456177e-24
3.1757181e-23
-5.9233043e-22
4.2793394e-24
8.2678749e-22
8.1472156e-22
1.7215849e-21
-1.8047122e-22
-1.9778098e-21
4.9241668e-22
-2.5750969e-31